# Force and moment coefficients
# dragDir     : (1.000000e+00 0.000000e+00 0.000000e+00)
# sideDir     : (0.000000e+00 0.000000e+00 -1.000000e+00)
# liftDir     : (0.000000e+00 1.000000e+00 0.000000e+00)
# rollAxis    : (1.000000e+00 0.000000e+00 0.000000e+00)
# pitchAxis   : (0.000000e+00 0.000000e+00 -1.000000e+00)
# yawAxis     : (0.000000e+00 1.000000e+00 0.000000e+00)
# magUInf     : 2.000000e+01
# lRef        : 1.000000e+00
# Aref        : 1.000000e+00
# CofR        : (0.000000e+00 0.000000e+00 0.000000e+00)
#
# Time        	Cd            	Cd(f)         	Cd(r)         	Cl            	Cl(f)         	Cl(r)         	CmPitch       	CmRoll        	CmYaw         	Cs            	Cs(f)         	Cs(r)         
50            	2.805296e+01	-1.934845e+03	1.962898e+03	2.559801e-04	2.524812e+03	-2.524812e+03	2.524812e+03	-1.948872e+03	7.944836e+02	2.136665e+01	8.051669e+02	-7.838002e+02
100           	2.805508e+01	-2.960906e+03	2.988962e+03	9.911812e-07	2.524884e+03	-2.524884e+03	2.524884e+03	-2.974934e+03	2.446405e+03	3.305500e+01	2.462933e+03	-2.429878e+03
150           	2.805416e+01	-2.960092e+03	2.988146e+03	-5.400229e-07	2.524823e+03	-2.524823e+03	2.524823e+03	-2.974119e+03	2.445500e+03	3.304583e+01	2.462023e+03	-2.428978e+03
200           	2.805420e+01	-2.960131e+03	2.988185e+03	3.019472e-07	2.524830e+03	-2.524830e+03	2.524830e+03	-2.974158e+03	2.445491e+03	3.304606e+01	2.462014e+03	-2.428968e+03
250           	2.805442e+01	-2.960291e+03	2.988345e+03	-3.871639e-08	2.524834e+03	-2.524834e+03	2.524834e+03	-2.974318e+03	2.445695e+03	3.304784e+01	2.462219e+03	-2.429171e+03
300           	2.805430e+01	-2.960013e+03	2.988067e+03	-2.044567e-07	2.524821e+03	-2.524821e+03	2.524821e+03	-2.974040e+03	2.445228e+03	3.304478e+01	2.461751e+03	-2.428706e+03
350           	2.805479e+01	-2.959781e+03	2.987836e+03	3.198509e-07	2.524889e+03	-2.524889e+03	2.524889e+03	-2.973808e+03	2.445016e+03	3.304191e+01	2.461537e+03	-2.428495e+03
400           	2.805486e+01	-2.959750e+03	2.987805e+03	2.702934e-07	2.524896e+03	-2.524896e+03	2.524896e+03	-2.973777e+03	2.444977e+03	3.304158e+01	2.461498e+03	-2.428457e+03
