# Force and moment coefficients
# dragDir     : (1.000000e+00 0.000000e+00 0.000000e+00)
# sideDir     : (0.000000e+00 0.000000e+00 -1.000000e+00)
# liftDir     : (0.000000e+00 1.000000e+00 0.000000e+00)
# rollAxis    : (1.000000e+00 0.000000e+00 0.000000e+00)
# pitchAxis   : (0.000000e+00 0.000000e+00 -1.000000e+00)
# yawAxis     : (0.000000e+00 1.000000e+00 0.000000e+00)
# magUInf     : 9.000000e+00
# lRef        : 1.000000e+00
# Aref        : 1.000000e+00
# CofR        : (0.000000e+00 0.000000e+00 0.000000e+00)
#
# Time        	Cd            	Cd(f)         	Cd(r)         	Cl            	Cl(f)         	Cl(r)         	CmPitch       	CmRoll        	CmYaw         	Cs            	Cs(f)         	Cs(r)         
50            	1.839300e+00	5.119935e+01	-4.936005e+01	-2.742276e-01	-8.973787e-01	6.231511e-01	-7.602649e-01	5.027970e+01	-6.680171e+01	2.291097e+01	-5.534622e+01	7.825719e+01
100           	1.310999e+00	2.217905e+01	-2.086806e+01	-1.864945e-01	-6.512040e-01	4.647095e-01	-5.579568e-01	2.152356e+01	-3.439398e+01	1.101896e+01	-2.888450e+01	3.990347e+01
150           	1.097891e+00	1.496170e+01	-1.386381e+01	-8.972819e-02	-5.668291e-01	4.771010e-01	-5.219651e-01	1.441275e+01	-2.504378e+01	8.217260e+00	-2.093515e+01	2.915241e+01
200           	9.226930e-01	1.431177e+01	-1.338907e+01	-2.644835e-02	-5.151031e-01	4.886547e-01	-5.018789e-01	1.385042e+01	-2.284556e+01	8.292723e+00	-1.869920e+01	2.699192e+01
250           	9.038632e-01	1.170362e+01	-1.079976e+01	3.764852e-02	-4.793542e-01	5.170027e-01	-4.981784e-01	1.125169e+01	-1.930329e+01	6.576537e+00	-1.601502e+01	2.259156e+01
300           	9.146411e-01	9.336793e+00	-8.422152e+00	3.041085e-02	-4.829926e-01	5.134035e-01	-4.981980e-01	8.879472e+00	-1.686408e+01	5.199562e+00	-1.426430e+01	1.946387e+01
350           	9.575758e-01	6.523480e+00	-5.565904e+00	3.112353e-02	-4.850132e-01	5.161367e-01	-5.005750e-01	6.044692e+00	-1.417210e+01	3.516263e+00	-1.241397e+01	1.593023e+01
400           	9.546198e-01	6.274826e+00	-5.320206e+00	2.894863e-02	-4.886346e-01	5.175833e-01	-5.031089e-01	5.797516e+00	-1.388034e+01	3.219626e+00	-1.227053e+01	1.549015e+01
