# Force and moment coefficients
# dragDir     : (1.000000e+00 0.000000e+00 0.000000e+00)
# sideDir     : (0.000000e+00 0.000000e+00 -1.000000e+00)
# liftDir     : (0.000000e+00 1.000000e+00 0.000000e+00)
# rollAxis    : (1.000000e+00 0.000000e+00 0.000000e+00)
# pitchAxis   : (0.000000e+00 0.000000e+00 -1.000000e+00)
# yawAxis     : (0.000000e+00 1.000000e+00 0.000000e+00)
# magUInf     : 2.000000e+01
# lRef        : 1.000000e+00
# Aref        : 1.000000e+00
# CofR        : (0.000000e+00 0.000000e+00 0.000000e+00)
#
# Time        	Cd            	Cd(f)         	Cd(r)         	Cl            	Cl(f)         	Cl(r)         	CmPitch       	CmRoll        	CmYaw         	Cs            	Cs(f)         	Cs(r)         
50            	7.416608e-01	-5.771750e+00	6.513411e+00	-2.896751e-01	1.024696e-01	-3.921447e-01	2.473072e-01	-6.142580e+00	-1.606295e+01	1.346879e+01	-9.328560e+00	2.279735e+01
100           	4.765693e-01	-3.340375e+00	3.816945e+00	-1.162906e-01	2.292359e-02	-1.392142e-01	8.106890e-02	-3.578660e+00	-1.054487e+01	8.157410e+00	-6.466169e+00	1.462358e+01
150           	3.804378e-01	-2.357656e+00	2.738094e+00	-5.607158e-02	1.844053e-02	-7.451211e-02	4.647632e-02	-2.547875e+00	-7.588428e+00	6.108132e+00	-4.534362e+00	1.064249e+01
200           	3.302243e-01	-1.811984e+00	2.142209e+00	-2.028684e-02	2.407966e-02	-4.436649e-02	3.422308e-02	-1.977096e+00	-5.638322e+00	4.779145e+00	-3.248749e+00	8.027895e+00
250           	2.960073e-01	-1.422648e+00	1.718655e+00	-5.211197e-03	2.263052e-02	-2.784171e-02	2.523612e-02	-1.570652e+00	-4.331893e+00	3.740950e+00	-2.461418e+00	6.202368e+00
300           	2.741211e-01	-1.098347e+00	1.372469e+00	3.941075e-03	2.033607e-02	-1.639500e-02	1.836553e-02	-1.235408e+00	-3.485731e+00	2.918634e+00	-2.026415e+00	4.945048e+00
350           	2.606650e-01	-8.279359e-01	1.088601e+00	9.884281e-03	1.798327e-02	-8.098986e-03	1.304113e-02	-9.582684e-01	-2.923195e+00	2.268532e+00	-1.788929e+00	4.057462e+00
400           	2.516365e-01	-5.969662e-01	8.486027e-01	1.373782e-02	1.608230e-02	-2.344483e-03	9.213392e-03	-7.227844e-01	-2.545980e+00	1.750468e+00	-1.670746e+00	3.421214e+00
