# Force and moment coefficients
# dragDir     : (1.000000e+00 0.000000e+00 0.000000e+00)
# sideDir     : (0.000000e+00 0.000000e+00 -1.000000e+00)
# liftDir     : (0.000000e+00 1.000000e+00 0.000000e+00)
# rollAxis    : (1.000000e+00 0.000000e+00 0.000000e+00)
# pitchAxis   : (0.000000e+00 0.000000e+00 -1.000000e+00)
# yawAxis     : (0.000000e+00 1.000000e+00 0.000000e+00)
# magUInf     : 1.000000e-01
# lRef        : 1.000000e+00
# Aref        : 1.000000e+00
# CofR        : (0.000000e+00 0.000000e+00 0.000000e+00)
#
# Time        	Cd            	Cd(f)         	Cd(r)         	Cl            	Cl(f)         	Cl(r)         	CmPitch       	CmRoll        	CmYaw         	Cs            	Cs(f)         	Cs(r)         
50            	1.489833e+04	4.147148e+05	-3.998164e+05	-2.221243e+03	-7.268767e+03	5.047524e+03	-6.158146e+03	4.072656e+05	-5.410938e+05	1.855788e+05	-4.483044e+05	6.338832e+05
100           	1.061909e+04	1.796503e+05	-1.690313e+05	-1.510605e+03	-5.274753e+03	3.764147e+03	-4.519450e+03	1.743408e+05	-2.785913e+05	8.925360e+04	-2.339645e+05	3.232181e+05
150           	8.892919e+03	1.211898e+05	-1.122968e+05	-7.267984e+02	-4.591316e+03	3.864518e+03	-4.227917e+03	1.167433e+05	-2.028546e+05	6.655981e+04	-1.695747e+05	2.361345e+05
200           	7.473813e+03	1.159253e+05	-1.084515e+05	-2.142316e+02	-4.172335e+03	3.958103e+03	-4.065219e+03	1.121884e+05	-1.850491e+05	6.717106e+04	-1.514635e+05	2.186346e+05
250           	7.321292e+03	9.479931e+04	-8.747802e+04	3.049530e+02	-3.882769e+03	4.187722e+03	-4.035245e+03	9.113867e+04	-1.563567e+05	5.326995e+04	-1.297217e+05	1.829916e+05
300           	7.408593e+03	7.562802e+04	-6.821943e+04	2.463279e+02	-3.912240e+03	4.158568e+03	-4.035404e+03	7.192373e+04	-1.365991e+05	4.211645e+04	-1.155409e+05	1.576573e+05
350           	7.756364e+03	5.284019e+04	-4.508382e+04	2.521006e+02	-3.928607e+03	4.180708e+03	-4.054657e+03	4.896200e+04	-1.147940e+05	2.848173e+04	-1.005531e+05	1.290349e+05
400           	7.732421e+03	5.082609e+04	-4.309367e+04	2.344839e+02	-3.957941e+03	4.192424e+03	-4.075182e+03	4.695988e+04	-1.124308e+05	2.607897e+04	-9.939128e+04	1.254702e+05
