# Force and moment coefficients
# dragDir     : (1.000000e+00 0.000000e+00 0.000000e+00)
# sideDir     : (0.000000e+00 0.000000e+00 -1.000000e+00)
# liftDir     : (0.000000e+00 1.000000e+00 0.000000e+00)
# rollAxis    : (1.000000e+00 0.000000e+00 0.000000e+00)
# pitchAxis   : (0.000000e+00 0.000000e+00 -1.000000e+00)
# yawAxis     : (0.000000e+00 1.000000e+00 0.000000e+00)
# magUInf     : 5.000000e+00
# lRef        : 1.000000e+00
# Aref        : 1.000000e+00
# CofR        : (0.000000e+00 0.000000e+00 0.000000e+00)
#
# Time        	Cd            	Cd(f)         	Cd(r)         	Cl            	Cl(f)         	Cl(r)         	CmPitch       	CmRoll        	CmYaw         	Cs            	Cs(f)         	Cs(r)         
50            	5.493722e+00	1.378027e+02	-1.323089e+02	-7.531012e-01	-2.479540e+00	1.726439e+00	-2.102990e+00	1.350558e+02	-1.866387e+02	6.394218e+01	-1.546677e+02	2.186098e+02
100           	4.311710e+00	6.301325e+01	-5.870154e+01	-4.127452e-01	-1.921663e+00	1.508918e+00	-1.715290e+00	6.085740e+01	-1.019637e+02	2.981228e+01	-8.705755e+01	1.168698e+02
150           	3.792324e+00	3.699466e+01	-3.320234e+01	-4.734928e-02	-1.700569e+00	1.653220e+00	-1.676895e+00	3.509850e+01	-6.869562e+01	1.720995e+01	-6.009064e+01	7.730059e+01
200           	3.491267e+00	2.381282e+01	-2.032156e+01	5.709099e-02	-1.633397e+00	1.690488e+00	-1.661942e+00	2.206719e+01	-5.165120e+01	1.057886e+01	-4.636178e+01	5.694063e+01
250           	3.351887e+00	1.653089e+01	-1.317901e+01	-1.782384e-02	-1.664594e+00	1.646770e+00	-1.655682e+00	1.485495e+01	-4.268462e+01	6.862104e+00	-3.925356e+01	4.611567e+01
300           	3.268546e+00	1.230139e+01	-9.032842e+00	-2.115126e-01	-1.752762e+00	1.541250e+00	-1.647006e+00	1.066712e+01	-3.779118e+01	4.889376e+00	-3.534649e+01	4.023586e+01
350           	3.164411e+00	1.058110e+01	-7.416684e+00	-2.966926e-01	-1.791233e+00	1.494540e+00	-1.642887e+00	8.998890e+00	-3.550924e+01	4.270849e+00	-3.337381e+01	3.764466e+01
400           	3.092933e+00	9.776654e+00	-6.683721e+00	-3.308491e-01	-1.805295e+00	1.474446e+00	-1.639871e+00	8.230187e+00	-3.449647e+01	4.066420e+00	-3.246326e+01	3.652968e+01
