# Force and moment coefficients
# dragDir     : (1.000000e+00 0.000000e+00 0.000000e+00)
# sideDir     : (0.000000e+00 0.000000e+00 -1.000000e+00)
# liftDir     : (0.000000e+00 1.000000e+00 0.000000e+00)
# rollAxis    : (1.000000e+00 0.000000e+00 0.000000e+00)
# pitchAxis   : (0.000000e+00 0.000000e+00 -1.000000e+00)
# yawAxis     : (0.000000e+00 1.000000e+00 0.000000e+00)
# magUInf     : 1.400000e+01
# lRef        : 1.000000e+00
# Aref        : 1.000000e+00
# CofR        : (0.000000e+00 0.000000e+00 0.000000e+00)
#
# Time        	Cd            	Cd(f)         	Cd(r)         	Cl            	Cl(f)         	Cl(r)         	CmPitch       	CmRoll        	CmYaw         	Cs            	Cs(f)         	Cs(r)         
50            	5.540036e-01	1.691039e+01	-1.635639e+01	-1.206820e-01	-3.299828e-01	2.093008e-01	-2.696418e-01	1.663339e+01	-2.278993e+01	7.911208e+00	-1.883433e+01	2.674554e+01
100           	4.451176e-01	7.682938e+00	-7.237820e+00	-6.911404e-02	-2.584888e-01	1.893748e-01	-2.239318e-01	7.460379e+00	-1.241037e+01	3.718047e+00	-1.055135e+01	1.426939e+01
150           	3.855174e-01	4.232701e+00	-3.847183e+00	-1.928503e-02	-2.261961e-01	2.069111e-01	-2.165536e-01	4.039942e+00	-7.962518e+00	1.997091e+00	-6.963972e+00	8.961064e+00
200           	3.487810e-01	2.532525e+00	-2.183744e+00	6.781631e-03	-2.108087e-01	2.175904e-01	-2.141995e-01	2.358135e+00	-5.699380e+00	1.123610e+00	-5.137575e+00	6.261185e+00
250           	3.386035e-01	1.650864e+00	-1.312261e+00	2.429376e-02	-2.009137e-01	2.252075e-01	-2.130606e-01	1.481562e+00	-4.526711e+00	6.398838e-01	-4.206769e+00	4.846653e+00
300           	3.477137e-01	1.231481e+00	-8.837676e-01	2.908172e-02	-1.982306e-01	2.273123e-01	-2.127715e-01	1.057624e+00	-4.002048e+00	3.964560e-01	-3.803820e+00	4.200276e+00
350           	3.622688e-01	1.066419e+00	-7.041503e-01	3.008269e-02	-1.976825e-01	2.277651e-01	-2.127238e-01	8.852847e-01	-3.832628e+00	2.910187e-01	-3.687118e+00	3.978137e+00
400           	3.669134e-01	9.711449e-01	-6.042315e-01	2.940698e-02	-1.979213e-01	2.273283e-01	-2.126248e-01	7.876882e-01	-3.740533e+00	2.409630e-01	-3.620052e+00	3.861014e+00
