# Force and moment coefficients
# dragDir     : (1.000000e+00 0.000000e+00 0.000000e+00)
# sideDir     : (0.000000e+00 0.000000e+00 -1.000000e+00)
# liftDir     : (0.000000e+00 1.000000e+00 0.000000e+00)
# rollAxis    : (1.000000e+00 0.000000e+00 0.000000e+00)
# pitchAxis   : (0.000000e+00 0.000000e+00 -1.000000e+00)
# yawAxis     : (0.000000e+00 1.000000e+00 0.000000e+00)
# magUInf     : 1.300000e+01
# lRef        : 1.000000e+00
# Aref        : 1.000000e+00
# CofR        : (0.000000e+00 0.000000e+00 0.000000e+00)
#
# Time        	Cd            	Cd(f)         	Cd(r)         	Cl            	Cl(f)         	Cl(r)         	CmPitch       	CmRoll        	CmYaw         	Cs            	Cs(f)         	Cs(r)         
50            	6.425130e-01	1.961205e+01	-1.896954e+01	-1.399626e-01	-3.827019e-01	2.427393e-01	-3.127206e-01	1.929080e+01	-2.643093e+01	9.175128e+00	-2.184337e+01	3.101849e+01
100           	5.162311e-01	8.910390e+00	-8.394158e+00	-8.015593e-02	-2.997858e-01	2.196299e-01	-2.597079e-01	8.652274e+00	-1.439309e+01	4.312054e+00	-1.223706e+01	1.654912e+01
150           	4.471089e-01	4.908931e+00	-4.461822e+00	-2.236607e-02	-2.623339e-01	2.399679e-01	-2.511509e-01	4.685377e+00	-9.234636e+00	2.316153e+00	-8.076559e+00	1.039271e+01
200           	4.045035e-01	2.937130e+00	-2.532626e+00	7.865086e-03	-2.444882e-01	2.523533e-01	-2.484208e-01	2.734878e+00	-6.609932e+00	1.303121e+00	-5.958371e+00	7.261492e+00
250           	3.926999e-01	1.914612e+00	-1.521912e+00	2.817502e-02	-2.330123e-01	2.611874e-01	-2.470999e-01	1.718262e+00	-5.249914e+00	7.421137e-01	-4.878857e+00	5.620971e+00
300           	4.032655e-01	1.428227e+00	-1.024961e+00	3.372792e-02	-2.299006e-01	2.636285e-01	-2.467645e-01	1.226594e+00	-4.641428e+00	4.597952e-01	-4.411530e+00	4.871326e+00
350           	4.201460e-01	1.236794e+00	-8.166477e-01	3.488880e-02	-2.292649e-01	2.641537e-01	-2.467093e-01	1.026721e+00	-4.444941e+00	3.375128e-01	-4.276185e+00	4.613698e+00
400           	4.255327e-01	1.126298e+00	-7.007655e-01	3.410514e-02	-2.295418e-01	2.636470e-01	-2.465944e-01	9.135319e-01	-4.338133e+00	2.794600e-01	-4.198403e+00	4.477863e+00
