# Force and moment coefficients
# dragDir     : (1.000000e+00 0.000000e+00 0.000000e+00)
# sideDir     : (0.000000e+00 0.000000e+00 -1.000000e+00)
# liftDir     : (0.000000e+00 1.000000e+00 0.000000e+00)
# rollAxis    : (1.000000e+00 0.000000e+00 0.000000e+00)
# pitchAxis   : (0.000000e+00 0.000000e+00 -1.000000e+00)
# yawAxis     : (0.000000e+00 1.000000e+00 0.000000e+00)
# magUInf     : 2.700000e+01
# lRef        : 1.000000e+00
# Aref        : 1.000000e+00
# CofR        : (0.000000e+00 0.000000e+00 0.000000e+00)
#
# Time        	Cd            	Cd(f)         	Cd(r)         	Cl            	Cl(f)         	Cl(r)         	CmPitch       	CmRoll        	CmYaw         	Cs            	Cs(f)         	Cs(r)         
50            	1.489502e-01	4.546553e+00	-4.397602e+00	-3.244675e-02	-8.871965e-02	5.627290e-02	-7.249628e-02	4.472077e+00	-6.127335e+00	2.127019e+00	-5.063825e+00	7.190844e+00
100           	1.196750e-01	2.065646e+00	-1.945971e+00	-1.858210e-02	-6.949767e-02	5.091557e-02	-6.020662e-02	2.005808e+00	-3.336670e+00	9.996394e-01	-2.836850e+00	3.836490e+00
150           	1.036508e-01	1.138010e+00	-1.034359e+00	-5.185001e-03	-6.081541e-02	5.563041e-02	-5.822291e-02	1.086185e+00	-2.140814e+00	5.369409e-01	-1.872344e+00	2.409285e+00
200           	9.377378e-02	6.808984e-01	-5.871246e-01	1.823319e-03	-5.667834e-02	5.850166e-02	-5.759000e-02	6.340115e-01	-1.532344e+00	3.020953e-01	-1.381296e+00	1.683391e+00
250           	9.103742e-02	4.438538e-01	-3.528163e-01	6.531657e-03	-5.401795e-02	6.054961e-02	-5.728378e-02	3.983350e-01	-1.217058e+00	1.720401e-01	-1.131038e+00	1.303078e+00
300           	9.348680e-02	3.310978e-01	-2.376110e-01	7.818954e-03	-5.329657e-02	6.111552e-02	-5.720605e-02	2.843544e-01	-1.075996e+00	1.065917e-01	-1.022700e+00	1.129292e+00
350           	9.740011e-02	2.867190e-01	-1.893189e-01	8.088076e-03	-5.314919e-02	6.123727e-02	-5.719323e-02	2.380189e-01	-1.030446e+00	7.824371e-02	-9.913240e-01	1.069568e+00
400           	9.864886e-02	2.611034e-01	-1.624546e-01	7.906404e-03	-5.321340e-02	6.111981e-02	-5.716661e-02	2.117790e-01	-1.005685e+00	6.478565e-02	-9.732923e-01	1.038078e+00
