# Force and moment coefficients
# dragDir     : (1.000000e+00 0.000000e+00 0.000000e+00)
# sideDir     : (0.000000e+00 0.000000e+00 -1.000000e+00)
# liftDir     : (0.000000e+00 1.000000e+00 0.000000e+00)
# rollAxis    : (1.000000e+00 0.000000e+00 0.000000e+00)
# pitchAxis   : (0.000000e+00 0.000000e+00 -1.000000e+00)
# yawAxis     : (0.000000e+00 1.000000e+00 0.000000e+00)
# magUInf     : 1.600000e+01
# lRef        : 1.000000e+00
# Aref        : 1.000000e+00
# CofR        : (0.000000e+00 0.000000e+00 0.000000e+00)
#
# Time        	Cd            	Cd(f)         	Cd(r)         	Cl            	Cl(f)         	Cl(r)         	CmPitch       	CmRoll        	CmYaw         	Cs            	Cs(f)         	Cs(r)         
50            	4.241590e-01	1.294702e+01	-1.252286e+01	-9.239719e-02	-2.526431e-01	1.602459e-01	-2.064445e-01	1.273494e+01	-1.744854e+01	6.057018e+00	-1.442003e+01	2.047705e+01
100           	3.407932e-01	5.882249e+00	-5.541456e+00	-5.291544e-02	-1.979055e-01	1.449901e-01	-1.714478e-01	5.711853e+00	-9.501690e+00	2.846630e+00	-8.078375e+00	1.092500e+01
150           	2.951617e-01	3.240661e+00	-2.945500e+00	-1.476510e-02	-1.731814e-01	1.584163e-01	-1.657988e-01	3.093081e+00	-6.096303e+00	1.529023e+00	-5.331791e+00	6.860814e+00
200           	2.670355e-01	1.938964e+00	-1.671929e+00	5.192186e-03	-1.614004e-01	1.665926e-01	-1.639965e-01	1.805447e+00	-4.363588e+00	8.602637e-01	-3.933456e+00	4.793720e+00
250           	2.592433e-01	1.263943e+00	-1.004700e+00	1.859991e-02	-1.538246e-01	1.724245e-01	-1.631245e-01	1.134321e+00	-3.465763e+00	4.899110e-01	-3.220808e+00	3.710719e+00
300           	2.662183e-01	9.428528e-01	-6.766346e-01	2.226569e-02	-1.517703e-01	1.740360e-01	-1.629032e-01	8.097437e-01	-3.064068e+00	3.035366e-01	-2.912299e+00	3.215836e+00
350           	2.773620e-01	8.164771e-01	-5.391151e-01	2.303206e-02	-1.513506e-01	1.743827e-01	-1.628667e-01	6.777961e-01	-2.934356e+00	2.228112e-01	-2.822950e+00	3.045761e+00
400           	2.809181e-01	7.435328e-01	-4.626148e-01	2.251472e-02	-1.515335e-01	1.740482e-01	-1.627908e-01	6.030738e-01	-2.863846e+00	1.844873e-01	-2.771602e+00	2.956089e+00
