# Force and moment coefficients
# dragDir     : (1.000000e+00 0.000000e+00 0.000000e+00)
# sideDir     : (0.000000e+00 0.000000e+00 -1.000000e+00)
# liftDir     : (0.000000e+00 1.000000e+00 0.000000e+00)
# rollAxis    : (1.000000e+00 0.000000e+00 0.000000e+00)
# pitchAxis   : (0.000000e+00 0.000000e+00 -1.000000e+00)
# yawAxis     : (0.000000e+00 1.000000e+00 0.000000e+00)
# magUInf     : 4.000000e+00
# lRef        : 1.000000e+00
# Aref        : 1.000000e+00
# CofR        : (0.000000e+00 0.000000e+00 0.000000e+00)
#
# Time        	Cd            	Cd(f)         	Cd(r)         	Cl            	Cl(f)         	Cl(r)         	CmPitch       	CmRoll        	CmYaw         	Cs            	Cs(f)         	Cs(r)         
50            	6.786544e+00	2.071523e+02	-2.003658e+02	-1.478355e+00	-4.042289e+00	2.563934e+00	-3.303112e+00	2.037590e+02	-2.791767e+02	9.691229e+01	-2.307205e+02	3.276328e+02
100           	5.452691e+00	9.411599e+01	-8.866330e+01	-8.466470e-01	-3.166488e+00	2.319841e+00	-2.743164e+00	9.138964e+01	-1.520270e+02	4.554607e+01	-1.292540e+02	1.748001e+02
150           	4.722588e+00	5.185058e+01	-4.712800e+01	-2.362416e-01	-2.770902e+00	2.534661e+00	-2.652781e+00	4.948929e+01	-9.754084e+01	2.446437e+01	-8.530866e+01	1.097730e+02
200           	4.272568e+00	3.102343e+01	-2.675086e+01	8.307498e-02	-2.582407e+00	2.665482e+00	-2.623944e+00	2.888715e+01	-6.981740e+01	1.376422e+01	-6.293529e+01	7.669951e+01
250           	4.147893e+00	2.022309e+01	-1.607519e+01	2.975986e-01	-2.461193e+00	2.758792e+00	-2.609992e+00	1.814914e+01	-5.545221e+01	7.838576e+00	-5.153292e+01	5.937150e+01
300           	4.259492e+00	1.508565e+01	-1.082615e+01	3.562511e-01	-2.428325e+00	2.784576e+00	-2.606450e+00	1.295590e+01	-4.902508e+01	4.856586e+00	-4.659679e+01	5.145338e+01
350           	4.437793e+00	1.306363e+01	-8.625841e+00	3.685130e-01	-2.421610e+00	2.790123e+00	-2.605867e+00	1.084474e+01	-4.694969e+01	3.564979e+00	-4.516720e+01	4.873218e+01
400           	4.494689e+00	1.189652e+01	-7.401836e+00	3.602355e-01	-2.424536e+00	2.784771e+00	-2.604653e+00	9.649180e+00	-4.582153e+01	2.951796e+00	-4.434563e+01	4.729743e+01
