# Force and moment coefficients
# dragDir     : (1.000000e+00 0.000000e+00 0.000000e+00)
# sideDir     : (0.000000e+00 0.000000e+00 -1.000000e+00)
# liftDir     : (0.000000e+00 1.000000e+00 0.000000e+00)
# rollAxis    : (1.000000e+00 0.000000e+00 0.000000e+00)
# pitchAxis   : (0.000000e+00 0.000000e+00 -1.000000e+00)
# yawAxis     : (0.000000e+00 1.000000e+00 0.000000e+00)
# magUInf     : 1.200000e+01
# lRef        : 1.000000e+00
# Aref        : 1.000000e+00
# CofR        : (0.000000e+00 0.000000e+00 0.000000e+00)
#
# Time        	Cd            	Cd(f)         	Cd(r)         	Cl            	Cl(f)         	Cl(r)         	CmPitch       	CmRoll        	CmYaw         	Cs            	Cs(f)         	Cs(r)         
50            	9.537711e-01	2.392407e+01	-2.297030e+01	-1.307467e-01	-4.304758e-01	2.997290e-01	-3.651024e-01	2.344719e+01	-3.240256e+01	1.110107e+01	-2.685202e+01	3.795310e+01
100           	7.485608e-01	1.093980e+01	-1.019124e+01	-7.165716e-02	-3.336220e-01	2.619648e-01	-2.977934e-01	1.056552e+01	-1.770203e+01	5.175743e+00	-1.511416e+01	2.028990e+01
150           	6.583896e-01	6.422685e+00	-5.764295e+00	-8.220362e-03	-2.952377e-01	2.870174e-01	-2.911275e-01	6.093490e+00	-1.192632e+01	2.987838e+00	-1.043240e+01	1.342024e+01
200           	6.061228e-01	4.134171e+00	-3.528048e+00	9.911630e-03	-2.835758e-01	2.934874e-01	-2.885316e-01	3.831110e+00	-8.967223e+00	1.836607e+00	-8.048919e+00	9.885526e+00
250           	5.819248e-01	2.869947e+00	-2.288022e+00	-3.094416e-03	-2.889920e-01	2.858976e-01	-2.874448e-01	2.578984e+00	-7.410523e+00	1.191337e+00	-6.814855e+00	8.006192e+00
300           	5.674559e-01	2.135658e+00	-1.568202e+00	-3.672094e-02	-3.042990e-01	2.675781e-01	-2.859385e-01	1.851930e+00	-6.560968e+00	8.488500e-01	-6.136543e+00	6.985393e+00
350           	5.493769e-01	1.836996e+00	-1.287619e+00	-5.150913e-02	-3.109780e-01	2.594688e-01	-2.852234e-01	1.562307e+00	-6.164798e+00	7.414668e-01	-5.794065e+00	6.535532e+00
400           	5.369676e-01	1.697336e+00	-1.160368e+00	-5.743909e-02	-3.134193e-01	2.559803e-01	-2.846998e-01	1.428852e+00	-5.988970e+00	7.059758e-01	-5.635982e+00	6.341958e+00
