# Force and moment coefficients
# dragDir     : (1.000000e+00 0.000000e+00 0.000000e+00)
# sideDir     : (0.000000e+00 0.000000e+00 -1.000000e+00)
# liftDir     : (0.000000e+00 1.000000e+00 0.000000e+00)
# rollAxis    : (1.000000e+00 0.000000e+00 0.000000e+00)
# pitchAxis   : (0.000000e+00 0.000000e+00 -1.000000e+00)
# yawAxis     : (0.000000e+00 1.000000e+00 0.000000e+00)
# magUInf     : 2.000000e+01
# lRef        : 1.000000e+00
# Aref        : 1.000000e+00
# CofR        : (0.000000e+00 0.000000e+00 0.000000e+00)
#
# Time        	Cd            	Cd(f)         	Cd(r)         	Cl            	Cl(f)         	Cl(r)         	CmPitch       	CmRoll        	CmYaw         	Cs            	Cs(f)         	Cs(r)         
50            	2.714618e-01	8.286092e+00	-8.014630e+00	-5.913420e-02	-1.616916e-01	1.025574e-01	-1.321245e-01	8.150361e+00	-1.116707e+01	3.876492e+00	-9.228822e+00	1.310531e+01
100           	2.181076e-01	3.764640e+00	-3.546532e+00	-3.386588e-02	-1.266595e-01	9.279363e-02	-1.097266e-01	3.655586e+00	-6.081081e+00	1.821843e+00	-5.170160e+00	6.992003e+00
150           	1.889035e-01	2.074023e+00	-1.885120e+00	-9.449664e-03	-1.108361e-01	1.013864e-01	-1.061113e-01	1.979572e+00	-3.901634e+00	9.785748e-01	-3.412346e+00	4.390921e+00
200           	1.709027e-01	1.240937e+00	-1.070035e+00	3.322999e-03	-1.032963e-01	1.066193e-01	-1.049578e-01	1.155486e+00	-2.792696e+00	5.505688e-01	-2.517412e+00	3.067981e+00
250           	1.659157e-01	8.089235e-01	-6.430078e-01	1.190394e-02	-9.844772e-02	1.103517e-01	-1.043997e-01	7.259656e-01	-2.218089e+00	3.135431e-01	-2.061317e+00	2.374860e+00
300           	1.703797e-01	6.034258e-01	-4.330461e-01	1.425004e-02	-9.713300e-02	1.113830e-01	-1.042580e-01	5.182360e-01	-1.961003e+00	1.942635e-01	-1.863872e+00	2.058135e+00
350           	1.775117e-01	5.225453e-01	-3.450336e-01	1.474052e-02	-9.686440e-02	1.116049e-01	-1.042347e-01	4.337895e-01	-1.877988e+00	1.425992e-01	-1.806688e+00	1.949287e+00
400           	1.797876e-01	4.758610e-01	-2.960734e-01	1.440942e-02	-9.698143e-02	1.113908e-01	-1.041861e-01	3.859672e-01	-1.832861e+00	1.180718e-01	-1.773825e+00	1.891897e+00
