# Force and moment coefficients
# dragDir     : (1.000000e+00 0.000000e+00 0.000000e+00)
# sideDir     : (0.000000e+00 0.000000e+00 -1.000000e+00)
# liftDir     : (0.000000e+00 1.000000e+00 0.000000e+00)
# rollAxis    : (1.000000e+00 0.000000e+00 0.000000e+00)
# pitchAxis   : (0.000000e+00 0.000000e+00 -1.000000e+00)
# yawAxis     : (0.000000e+00 1.000000e+00 0.000000e+00)
# magUInf     : 2.200000e+01
# lRef        : 1.000000e+00
# Aref        : 1.000000e+00
# CofR        : (0.000000e+00 0.000000e+00 0.000000e+00)
#
# Time        	Cd            	Cd(f)         	Cd(r)         	Cl            	Cl(f)         	Cl(r)         	CmPitch       	CmRoll        	CmYaw         	Cs            	Cs(f)         	Cs(r)         
50            	2.837666e-01	7.117906e+00	-6.834139e+00	-3.889986e-02	-1.280754e-01	8.917558e-02	-1.086255e-01	6.976022e+00	-9.640431e+00	3.302799e+00	-7.989032e+00	1.129183e+01
100           	2.227123e-01	3.254817e+00	-3.032104e+00	-2.131949e-02	-9.925944e-02	7.793996e-02	-8.859970e-02	3.143461e+00	-5.266720e+00	1.539891e+00	-4.496774e+00	6.036665e+00
150           	1.958845e-01	1.910881e+00	-1.714997e+00	-2.445727e-03	-8.783932e-02	8.539359e-02	-8.661646e-02	1.812939e+00	-3.548327e+00	8.889436e-01	-3.103856e+00	3.992799e+00
200           	1.803341e-01	1.230001e+00	-1.049667e+00	2.948915e-03	-8.436966e-02	8.731857e-02	-8.584411e-02	1.139834e+00	-2.667934e+00	5.464285e-01	-2.394720e+00	2.941148e+00
250           	1.731347e-01	8.538685e-01	-6.807338e-01	-9.206527e-04	-8.598109e-02	8.506043e-02	-8.552076e-02	7.673011e-01	-2.204784e+00	3.544475e-01	-2.027560e+00	2.382008e+00
300           	1.688298e-01	6.354023e-01	-4.665724e-01	-1.092524e-02	-9.053525e-02	7.961001e-02	-8.507263e-02	5.509874e-01	-1.952024e+00	2.525504e-01	-1.825748e+00	2.078299e+00
350           	1.634510e-01	5.465442e-01	-3.830932e-01	-1.532503e-02	-9.252237e-02	7.719734e-02	-8.485985e-02	4.648187e-01	-1.834155e+00	2.206017e-01	-1.723854e+00	1.944456e+00
400           	1.597589e-01	5.049924e-01	-3.452335e-01	-1.708931e-02	-9.324873e-02	7.615941e-02	-8.470407e-02	4.251130e-01	-1.781842e+00	2.100424e-01	-1.676821e+00	1.886864e+00
