# Force and moment coefficients
# dragDir     : (1.000000e+00 0.000000e+00 0.000000e+00)
# sideDir     : (0.000000e+00 0.000000e+00 -1.000000e+00)
# liftDir     : (0.000000e+00 1.000000e+00 0.000000e+00)
# rollAxis    : (1.000000e+00 0.000000e+00 0.000000e+00)
# pitchAxis   : (0.000000e+00 0.000000e+00 -1.000000e+00)
# yawAxis     : (0.000000e+00 1.000000e+00 0.000000e+00)
# magUInf     : 2.100000e+01
# lRef        : 1.000000e+00
# Aref        : 1.000000e+00
# CofR        : (0.000000e+00 0.000000e+00 0.000000e+00)
#
# Time        	Cd            	Cd(f)         	Cd(r)         	Cl            	Cl(f)         	Cl(r)         	CmPitch       	CmRoll        	CmYaw         	Cs            	Cs(f)         	Cs(r)         
50            	3.114355e-01	7.811942e+00	-7.500506e+00	-4.269281e-02	-1.405635e-01	9.787070e-02	-1.192171e-01	7.656224e+00	-1.058043e+01	3.624840e+00	-8.768008e+00	1.239285e+01
100           	2.444280e-01	3.572180e+00	-3.327752e+00	-2.339826e-02	-1.089378e-01	8.553954e-02	-9.723867e-02	3.449966e+00	-5.780255e+00	1.690039e+00	-4.935235e+00	6.625274e+00
150           	2.149844e-01	2.097203e+00	-1.882219e+00	-2.684200e-03	-9.640415e-02	9.371995e-02	-9.506205e-02	1.989711e+00	-3.894309e+00	9.756206e-01	-3.406499e+00	4.382120e+00
200           	1.979176e-01	1.349933e+00	-1.152016e+00	3.236451e-03	-9.259618e-02	9.583263e-02	-9.421440e-02	1.250975e+00	-2.928073e+00	5.997084e-01	-2.628219e+00	3.227927e+00
250           	1.900163e-01	9.371255e-01	-7.471092e-01	-1.010422e-03	-9.436473e-02	9.335431e-02	-9.385952e-02	8.421173e-01	-2.419763e+00	3.890081e-01	-2.225259e+00	2.614267e+00
300           	1.852917e-01	6.973576e-01	-5.120659e-01	-1.199051e-02	-9.936295e-02	8.737243e-02	-9.336769e-02	6.047118e-01	-2.142357e+00	2.771755e-01	-2.003769e+00	2.280945e+00
350           	1.793884e-01	5.998353e-01	-4.204470e-01	-1.681931e-02	-1.015438e-01	8.472451e-02	-9.313417e-02	5.101411e-01	-2.012995e+00	2.421116e-01	-1.891940e+00	2.134051e+00
400           	1.753363e-01	5.542321e-01	-3.788957e-01	-1.875562e-02	-1.023410e-01	8.358539e-02	-9.296320e-02	4.665639e-01	-1.955582e+00	2.305227e-01	-1.840321e+00	2.070843e+00
