# Force and moment coefficients
# dragDir     : (1.000000e+00 0.000000e+00 0.000000e+00)
# sideDir     : (0.000000e+00 0.000000e+00 -1.000000e+00)
# liftDir     : (0.000000e+00 1.000000e+00 0.000000e+00)
# rollAxis    : (1.000000e+00 0.000000e+00 0.000000e+00)
# pitchAxis   : (0.000000e+00 0.000000e+00 -1.000000e+00)
# yawAxis     : (0.000000e+00 1.000000e+00 0.000000e+00)
# magUInf     : 5.000000e+00
# lRef        : 1.000000e+00
# Aref        : 1.000000e+00
# CofR        : (0.000000e+00 0.000000e+00 0.000000e+00)
#
# Time        	Cd            	Cd(f)         	Cd(r)         	Cl            	Cl(f)         	Cl(r)         	CmPitch       	CmRoll        	CmYaw         	Cs            	Cs(f)         	Cs(r)         
50            	5.959331e+00	1.658859e+02	-1.599266e+02	-8.884973e-01	-2.907507e+00	2.019010e+00	-2.463258e+00	1.629062e+02	-2.164375e+02	7.423153e+01	-1.793218e+02	2.535533e+02
100           	4.247635e+00	7.186014e+01	-6.761250e+01	-6.042421e-01	-2.109901e+00	1.505659e+00	-1.807780e+00	6.973632e+01	-1.114365e+02	3.570144e+01	-9.358579e+01	1.292872e+02
150           	3.557168e+00	4.847590e+01	-4.491874e+01	-2.907193e-01	-1.836526e+00	1.545807e+00	-1.691167e+00	4.669732e+01	-8.114184e+01	2.662392e+01	-6.782988e+01	9.445380e+01
200           	2.989525e+00	4.637012e+01	-4.338060e+01	-8.569264e-02	-1.668934e+00	1.583241e+00	-1.626088e+00	4.487536e+01	-7.401962e+01	2.686842e+01	-6.058541e+01	8.745384e+01
250           	2.928517e+00	3.791972e+01	-3.499121e+01	1.219812e-01	-1.553107e+00	1.675089e+00	-1.614098e+00	3.645547e+01	-6.254267e+01	2.130798e+01	-5.188868e+01	7.319665e+01
300           	2.963437e+00	3.025121e+01	-2.728777e+01	9.853115e-02	-1.564896e+00	1.663427e+00	-1.614162e+00	2.876949e+01	-5.463963e+01	1.684658e+01	-4.621634e+01	6.306292e+01
350           	3.102545e+00	2.113607e+01	-1.803353e+01	1.008402e-01	-1.571443e+00	1.672283e+00	-1.621863e+00	1.958480e+01	-4.591760e+01	1.139269e+01	-4.022125e+01	5.161395e+01
400           	3.092968e+00	2.033044e+01	-1.723747e+01	9.379356e-02	-1.583176e+00	1.676970e+00	-1.630073e+00	1.878395e+01	-4.497230e+01	1.043159e+01	-3.975651e+01	5.018810e+01
