# Force and moment coefficients
# dragDir     : (1.000000e+00 0.000000e+00 0.000000e+00)
# sideDir     : (0.000000e+00 0.000000e+00 -1.000000e+00)
# liftDir     : (0.000000e+00 1.000000e+00 0.000000e+00)
# rollAxis    : (1.000000e+00 0.000000e+00 0.000000e+00)
# pitchAxis   : (0.000000e+00 0.000000e+00 -1.000000e+00)
# yawAxis     : (0.000000e+00 1.000000e+00 0.000000e+00)
# magUInf     : 7.000000e+00
# lRef        : 1.000000e+00
# Aref        : 1.000000e+00
# CofR        : (0.000000e+00 0.000000e+00 0.000000e+00)
#
# Time        	Cd            	Cd(f)         	Cd(r)         	Cl            	Cl(f)         	Cl(r)         	CmPitch       	CmRoll        	CmYaw         	Cs            	Cs(f)         	Cs(r)         
50            	3.040475e+00	8.463567e+01	-8.159519e+01	-4.533150e-01	-1.483422e+00	1.030107e+00	-1.256764e+00	8.311543e+01	-1.104273e+02	3.787323e+01	-9.149070e+01	1.293639e+02
100           	2.167161e+00	3.666334e+01	-3.449617e+01	-3.082868e-01	-1.076480e+00	7.681933e-01	-9.223367e-01	3.557976e+01	-5.685536e+01	1.821502e+01	-4.774785e+01	6.596287e+01
150           	1.814881e+00	2.473260e+01	-2.291772e+01	-1.483262e-01	-9.370033e-01	7.886771e-01	-8.628402e-01	2.382516e+01	-4.139890e+01	1.358363e+01	-3.460708e+01	4.819071e+01
200           	1.525268e+00	2.365823e+01	-2.213296e+01	-4.372073e-02	-8.514969e-01	8.077762e-01	-8.296366e-01	2.289559e+01	-3.776511e+01	1.370838e+01	-3.091092e+01	4.461930e+01
250           	1.494141e+00	1.934680e+01	-1.785266e+01	6.223531e-02	-7.924018e-01	8.546371e-01	-8.235194e-01	1.859973e+01	-3.190952e+01	1.087142e+01	-2.647381e+01	3.734523e+01
300           	1.511958e+00	1.543429e+01	-1.392233e+01	5.027100e-02	-7.984164e-01	8.486874e-01	-8.235519e-01	1.467831e+01	-2.787736e+01	8.595194e+00	-2.357977e+01	3.217496e+01
350           	1.582931e+00	1.078371e+01	-9.200780e+00	5.144910e-02	-8.017565e-01	8.532056e-01	-8.274811e-01	9.992246e+00	-2.342735e+01	5.812598e+00	-2.052105e+01	2.633365e+01
400           	1.578045e+00	1.037267e+01	-8.794627e+00	4.785386e-02	-8.077430e-01	8.555968e-01	-8.316699e-01	9.583650e+00	-2.294505e+01	5.322239e+00	-2.028393e+01	2.560617e+01
