# Force and moment coefficients
# dragDir     : (1.000000e+00 0.000000e+00 0.000000e+00)
# sideDir     : (0.000000e+00 0.000000e+00 -1.000000e+00)
# liftDir     : (0.000000e+00 1.000000e+00 0.000000e+00)
# rollAxis    : (1.000000e+00 0.000000e+00 0.000000e+00)
# pitchAxis   : (0.000000e+00 0.000000e+00 -1.000000e+00)
# yawAxis     : (0.000000e+00 1.000000e+00 0.000000e+00)
# magUInf     : 2.000000e+01
# lRef        : 1.000000e+00
# Aref        : 1.000000e+00
# CofR        : (0.000000e+00 0.000000e+00 0.000000e+00)
#
# Time        	Cd            	Cd(f)         	Cd(r)         	Cl            	Cl(f)         	Cl(r)         	CmPitch       	CmRoll        	CmYaw         	Cs            	Cs(f)         	Cs(r)         
50            	2.801004e+01	-1.406321e+03	1.434331e+03	1.473200e-03	2.524723e+03	-2.524721e+03	2.524722e+03	-1.420326e+03	-2.294823e+02	1.523851e+01	-2.218631e+02	2.371016e+02
100           	2.800820e+01	-2.958734e+03	2.986742e+03	-1.189728e-04	2.524937e+03	-2.524937e+03	2.524937e+03	-2.972738e+03	2.448206e+03	3.303994e+01	2.464726e+03	-2.431686e+03
150           	2.800765e+01	-2.958778e+03	2.986786e+03	-1.189716e-04	2.524883e+03	-2.524883e+03	2.524883e+03	-2.972782e+03	2.448411e+03	3.304067e+01	2.464931e+03	-2.431891e+03
200           	2.800736e+01	-2.959015e+03	2.987023e+03	-1.186335e-04	2.524869e+03	-2.524869e+03	2.524869e+03	-2.973019e+03	2.448858e+03	3.304371e+01	2.465380e+03	-2.432336e+03
250           	2.800655e+01	-2.958250e+03	2.986257e+03	-1.204158e-04	2.524816e+03	-2.524816e+03	2.524816e+03	-2.972254e+03	2.448073e+03	3.303460e+01	2.464590e+03	-2.431555e+03
300           	2.800981e+01	-2.958720e+03	2.986730e+03	-1.193169e-04	2.525074e+03	-2.525074e+03	2.525074e+03	-2.972725e+03	2.448561e+03	3.303990e+01	2.465081e+03	-2.432041e+03
350           	2.800826e+01	-2.958527e+03	2.986535e+03	-1.190767e-04	2.525049e+03	-2.525050e+03	2.525050e+03	-2.972531e+03	2.448377e+03	3.303724e+01	2.464896e+03	-2.431859e+03
400           	2.800767e+01	-2.958556e+03	2.986564e+03	-1.179919e-04	2.524857e+03	-2.524857e+03	2.524857e+03	-2.972560e+03	2.448570e+03	3.303822e+01	2.465089e+03	-2.432051e+03
