# Force and moment coefficients
# dragDir     : (1.000000e+00 0.000000e+00 0.000000e+00)
# sideDir     : (0.000000e+00 0.000000e+00 -1.000000e+00)
# liftDir     : (0.000000e+00 1.000000e+00 0.000000e+00)
# rollAxis    : (1.000000e+00 0.000000e+00 0.000000e+00)
# pitchAxis   : (0.000000e+00 0.000000e+00 -1.000000e+00)
# yawAxis     : (0.000000e+00 1.000000e+00 0.000000e+00)
# magUInf     : 4.000000e+00
# lRef        : 1.000000e+00
# Aref        : 1.000000e+00
# CofR        : (0.000000e+00 0.000000e+00 0.000000e+00)
#
# Time        	Cd            	Cd(f)         	Cd(r)         	Cl            	Cl(f)         	Cl(r)         	CmPitch       	CmRoll        	CmYaw         	Cs            	Cs(f)         	Cs(r)         
50            	8.583940e+00	2.153166e+02	-2.067327e+02	-1.176721e+00	-3.874282e+00	2.697561e+00	-3.285922e+00	2.110247e+02	-2.916230e+02	9.990966e+01	-2.416682e+02	3.415779e+02
100           	6.737047e+00	9.845821e+01	-9.172116e+01	-6.449144e-01	-3.002598e+00	2.357684e+00	-2.680141e+00	9.508968e+01	-1.593183e+02	4.658169e+01	-1.360274e+02	1.826091e+02
150           	5.925507e+00	5.780416e+01	-5.187865e+01	-7.398326e-02	-2.657139e+00	2.583156e+00	-2.620148e+00	5.484141e+01	-1.073369e+02	2.689054e+01	-9.389163e+01	1.207822e+02
200           	5.455105e+00	3.720754e+01	-3.175243e+01	8.920467e-02	-2.552182e+00	2.641387e+00	-2.596784e+00	3.447999e+01	-8.070501e+01	1.652946e+01	-7.244027e+01	8.896974e+01
250           	5.237324e+00	2.582952e+01	-2.059220e+01	-2.784974e-02	-2.600928e+00	2.573078e+00	-2.587003e+00	2.321086e+01	-6.669471e+01	1.072204e+01	-6.133369e+01	7.205573e+01
300           	5.107103e+00	1.922092e+01	-1.411382e+01	-3.304885e-01	-2.738691e+00	2.408203e+00	-2.573447e+00	1.666737e+01	-5.904871e+01	7.639650e+00	-5.522889e+01	6.286854e+01
350           	4.944392e+00	1.653296e+01	-1.158857e+01	-4.635821e-01	-2.798802e+00	2.335219e+00	-2.567011e+00	1.406077e+01	-5.548319e+01	6.673201e+00	-5.214658e+01	5.881979e+01
400           	4.832708e+00	1.527602e+01	-1.044331e+01	-5.169518e-01	-2.820774e+00	2.303822e+00	-2.562298e+00	1.285967e+01	-5.390073e+01	6.353782e+00	-5.072384e+01	5.707762e+01
