# Force and moment coefficients
# dragDir     : (1.000000e+00 0.000000e+00 0.000000e+00)
# sideDir     : (0.000000e+00 0.000000e+00 -1.000000e+00)
# liftDir     : (0.000000e+00 1.000000e+00 0.000000e+00)
# rollAxis    : (1.000000e+00 0.000000e+00 0.000000e+00)
# pitchAxis   : (0.000000e+00 0.000000e+00 -1.000000e+00)
# yawAxis     : (0.000000e+00 1.000000e+00 0.000000e+00)
# magUInf     : 1.700000e+01
# lRef        : 1.000000e+00
# Aref        : 1.000000e+00
# CofR        : (0.000000e+00 0.000000e+00 0.000000e+00)
#
# Time        	Cd            	Cd(f)         	Cd(r)         	Cl            	Cl(f)         	Cl(r)         	CmPitch       	CmRoll        	CmYaw         	Cs            	Cs(f)         	Cs(r)         
50            	3.757256e-01	1.146864e+01	-1.109291e+01	-8.184665e-02	-2.237946e-01	1.419479e-01	-1.828712e-01	1.128078e+01	-1.545615e+01	5.365386e+00	-1.277346e+01	1.813884e+01
100           	3.018791e-01	5.210574e+00	-4.908695e+00	-4.687319e-02	-1.753073e-01	1.284341e-01	-1.518707e-01	5.059634e+00	-8.416722e+00	2.521582e+00	-7.155931e+00	9.677513e+00
150           	2.614581e-01	2.870621e+00	-2.609162e+00	-1.307912e-02	-1.534064e-01	1.403272e-01	-1.468668e-01	2.739891e+00	-5.400185e+00	1.354429e+00	-4.722971e+00	6.077399e+00
200           	2.365435e-01	1.717560e+00	-1.481017e+00	4.599307e-03	-1.429706e-01	1.475699e-01	-1.452703e-01	1.599288e+00	-3.865323e+00	7.620329e-01	-3.484307e+00	4.246340e+00
250           	2.296411e-01	1.119617e+00	-8.899761e-01	1.647605e-02	-1.362598e-01	1.527359e-01	-1.444978e-01	1.004797e+00	-3.070019e+00	4.339696e-01	-2.853034e+00	3.287004e+00
300           	2.358196e-01	8.351914e-01	-5.993718e-01	1.972324e-02	-1.344401e-01	1.541634e-01	-1.443018e-01	7.172816e-01	-2.714191e+00	2.688768e-01	-2.579753e+00	2.848630e+00
350           	2.456909e-01	7.232462e-01	-4.775552e-01	2.040210e-02	-1.340684e-01	1.544705e-01	-1.442694e-01	6.004007e-01	-2.599291e+00	1.973691e-01	-2.500606e+00	2.697975e+00
400           	2.488409e-01	6.586311e-01	-4.097902e-01	1.994384e-02	-1.342303e-01	1.541742e-01	-1.442023e-01	5.342107e-01	-2.536832e+00	1.634212e-01	-2.455121e+00	2.618543e+00
