# Force and moment coefficients
# dragDir     : (1.000000e+00 0.000000e+00 0.000000e+00)
# sideDir     : (0.000000e+00 0.000000e+00 -1.000000e+00)
# liftDir     : (0.000000e+00 1.000000e+00 0.000000e+00)
# rollAxis    : (1.000000e+00 0.000000e+00 0.000000e+00)
# pitchAxis   : (0.000000e+00 0.000000e+00 -1.000000e+00)
# yawAxis     : (0.000000e+00 1.000000e+00 0.000000e+00)
# magUInf     : 3.000000e+01
# lRef        : 1.000000e+00
# Aref        : 1.000000e+00
# CofR        : (0.000000e+00 0.000000e+00 0.000000e+00)
#
# Time        	Cd            	Cd(f)         	Cd(r)         	Cl            	Cl(f)         	Cl(r)         	CmPitch       	CmRoll        	CmYaw         	Cs            	Cs(f)         	Cs(r)         
50            	1.206497e-01	3.682708e+00	-3.562058e+00	-2.628187e-02	-7.186292e-02	4.558105e-02	-5.872199e-02	3.622383e+00	-4.963141e+00	1.722885e+00	-4.101699e+00	5.824584e+00
100           	9.693673e-02	1.673173e+00	-1.576236e+00	-1.505150e-02	-5.629312e-02	4.124161e-02	-4.876737e-02	1.624705e+00	-2.702703e+00	8.097080e-01	-2.297849e+00	3.107557e+00
150           	8.395712e-02	9.217882e-01	-8.378310e-01	-4.199851e-03	-4.926048e-02	4.506063e-02	-4.716056e-02	8.798096e-01	-1.734059e+00	4.349221e-01	-1.516598e+00	1.951520e+00
200           	7.595676e-02	5.515277e-01	-4.755709e-01	1.476888e-03	-4.590945e-02	4.738634e-02	-4.664790e-02	5.135493e-01	-1.241198e+00	2.446972e-01	-1.118850e+00	1.363547e+00
250           	7.374031e-02	3.595215e-01	-2.857812e-01	5.290642e-03	-4.375454e-02	4.904518e-02	-4.639986e-02	3.226514e-01	-9.858171e-01	1.393525e-01	-9.161409e-01	1.055493e+00
300           	7.572431e-02	2.681892e-01	-1.924649e-01	6.333353e-03	-4.317022e-02	4.950357e-02	-4.633690e-02	2.303271e-01	-8.715570e-01	8.633931e-02	-8.283874e-01	9.147267e-01
350           	7.889409e-02	2.322424e-01	-1.533483e-01	6.551342e-03	-4.305085e-02	4.960219e-02	-4.632652e-02	1.927953e-01	-8.346612e-01	6.337740e-02	-8.029725e-01	8.663499e-01
400           	7.990558e-02	2.114938e-01	-1.315882e-01	6.404187e-03	-4.310286e-02	4.950704e-02	-4.630495e-02	1.715410e-01	-8.146050e-01	5.247638e-02	-7.883668e-01	8.408432e-01
