# Force and moment coefficients
# dragDir     : (1.000000e+00 0.000000e+00 0.000000e+00)
# sideDir     : (0.000000e+00 0.000000e+00 -1.000000e+00)
# liftDir     : (0.000000e+00 1.000000e+00 0.000000e+00)
# rollAxis    : (1.000000e+00 0.000000e+00 0.000000e+00)
# pitchAxis   : (0.000000e+00 0.000000e+00 -1.000000e+00)
# yawAxis     : (0.000000e+00 1.000000e+00 0.000000e+00)
# magUInf     : 2.900000e+01
# lRef        : 1.000000e+00
# Aref        : 1.000000e+00
# CofR        : (0.000000e+00 0.000000e+00 0.000000e+00)
#
# Time        	Cd            	Cd(f)         	Cd(r)         	Cl            	Cl(f)         	Cl(r)         	CmPitch       	CmRoll        	CmYaw         	Cs            	Cs(f)         	Cs(r)         
50            	1.291138e-01	3.941066e+00	-3.811953e+00	-2.812566e-02	-7.690443e-02	4.877877e-02	-6.284160e-02	3.876509e+00	-5.311328e+00	1.843754e+00	-4.389452e+00	6.233205e+00
100           	1.037373e-01	1.790554e+00	-1.686817e+00	-1.610743e-02	-6.024234e-02	4.413490e-02	-5.218862e-02	1.738685e+00	-2.892310e+00	8.665127e-01	-2.459053e+00	3.325566e+00
150           	8.984709e-02	9.864558e-01	-8.966087e-01	-4.494490e-03	-5.271633e-02	4.822184e-02	-5.046909e-02	9.415323e-01	-1.855712e+00	4.654339e-01	-1.622995e+00	2.088429e+00
200           	8.128548e-02	5.902199e-01	-5.089344e-01	1.580499e-03	-4.913021e-02	5.071071e-02	-4.992046e-02	5.495771e-01	-1.328274e+00	2.618639e-01	-1.197342e+00	1.459206e+00
250           	7.891353e-02	3.847436e-01	-3.058301e-01	5.661805e-03	-4.682412e-02	5.248593e-02	-4.965502e-02	3.452869e-01	-1.054977e+00	1.491287e-01	-9.804124e-01	1.129541e+00
300           	8.103671e-02	2.870039e-01	-2.059672e-01	6.777667e-03	-4.619881e-02	5.297648e-02	-4.958764e-02	2.464856e-01	-9.327007e-01	9.239641e-02	-8.865025e-01	9.788990e-01
350           	8.442887e-02	2.485352e-01	-1.641064e-01	7.010948e-03	-4.607106e-02	5.308201e-02	-4.957653e-02	2.063208e-01	-8.932165e-01	6.782362e-02	-8.593047e-01	9.271283e-01
400           	8.551132e-02	2.263310e-01	-1.408197e-01	6.853470e-03	-4.612672e-02	5.298019e-02	-4.955345e-02	1.835754e-01	-8.717532e-01	5.615783e-02	-8.436743e-01	8.998321e-01
