# Force and moment coefficients
# dragDir     : (1.000000e+00 0.000000e+00 0.000000e+00)
# sideDir     : (0.000000e+00 0.000000e+00 -1.000000e+00)
# liftDir     : (0.000000e+00 1.000000e+00 0.000000e+00)
# rollAxis    : (1.000000e+00 0.000000e+00 0.000000e+00)
# pitchAxis   : (0.000000e+00 0.000000e+00 -1.000000e+00)
# yawAxis     : (0.000000e+00 1.000000e+00 0.000000e+00)
# magUInf     : 1.900000e+01
# lRef        : 1.000000e+00
# Aref        : 1.000000e+00
# CofR        : (0.000000e+00 0.000000e+00 0.000000e+00)
#
# Time        	Cd            	Cd(f)         	Cd(r)         	Cl            	Cl(f)         	Cl(r)         	CmPitch       	CmRoll        	CmYaw         	Cs            	Cs(f)         	Cs(r)         
50            	3.007886e-01	9.181265e+00	-8.880477e+00	-6.552266e-02	-1.791596e-01	1.136370e-01	-1.463983e-01	9.030871e+00	-1.237348e+01	4.295282e+00	-1.022584e+01	1.452112e+01
100           	2.416705e-01	4.171346e+00	-3.929675e+00	-3.752452e-02	-1.403430e-01	1.028184e-01	-1.215807e-01	4.050511e+00	-6.738040e+00	2.018662e+00	-5.728709e+00	7.747372e+00
150           	2.093114e-01	2.298087e+00	-2.088775e+00	-1.047054e-02	-1.228101e-01	1.123395e-01	-1.175748e-01	2.193431e+00	-4.323140e+00	1.084293e+00	-3.780993e+00	4.865287e+00
200           	1.893659e-01	1.375000e+00	-1.185634e+00	3.681993e-03	-1.144557e-01	1.181377e-01	-1.162967e-01	1.280317e+00	-3.094400e+00	6.100485e-01	-2.789376e+00	3.399424e+00
250           	1.838401e-01	8.963141e-01	-7.124740e-01	1.318997e-02	-1.090833e-01	1.222733e-01	-1.156783e-01	8.043940e-01	-2.457716e+00	3.474161e-01	-2.284008e+00	2.631424e+00
300           	1.887864e-01	6.686158e-01	-4.798295e-01	1.578952e-02	-1.076266e-01	1.234161e-01	-1.155214e-01	5.742227e-01	-2.172857e+00	2.152504e-01	-2.065232e+00	2.280482e+00
350           	1.966889e-01	5.789976e-01	-3.823087e-01	1.633298e-02	-1.073290e-01	1.236620e-01	-1.154955e-01	4.806532e-01	-2.080873e+00	1.580046e-01	-2.001870e+00	2.159875e+00
400           	1.992106e-01	5.272698e-01	-3.280592e-01	1.596612e-02	-1.074586e-01	1.234248e-01	-1.154417e-01	4.276645e-01	-2.030871e+00	1.308275e-01	-1.965457e+00	2.096285e+00
