# Force and moment coefficients
# dragDir     : (1.000000e+00 0.000000e+00 0.000000e+00)
# sideDir     : (0.000000e+00 0.000000e+00 -1.000000e+00)
# liftDir     : (0.000000e+00 1.000000e+00 0.000000e+00)
# rollAxis    : (1.000000e+00 0.000000e+00 0.000000e+00)
# pitchAxis   : (0.000000e+00 0.000000e+00 -1.000000e+00)
# yawAxis     : (0.000000e+00 1.000000e+00 0.000000e+00)
# magUInf     : 1.500000e+01
# lRef        : 1.000000e+00
# Aref        : 1.000000e+00
# CofR        : (0.000000e+00 0.000000e+00 0.000000e+00)
#
# Time        	Cd            	Cd(f)         	Cd(r)         	Cl            	Cl(f)         	Cl(r)         	CmPitch       	CmRoll        	CmYaw         	Cs            	Cs(f)         	Cs(r)         
50            	6.621479e-01	1.843177e+01	-1.776962e+01	-9.872192e-02	-3.230563e-01	2.243344e-01	-2.736954e-01	1.810069e+01	-2.404861e+01	8.247948e+00	-1.992464e+01	2.817259e+01
100           	4.719595e-01	7.984460e+00	-7.512500e+00	-6.713802e-02	-2.344334e-01	1.672954e-01	-2.008644e-01	7.748480e+00	-1.238183e+01	3.966827e+00	-1.039842e+01	1.436525e+01
150           	3.952408e-01	5.386211e+00	-4.990971e+00	-3.230215e-02	-2.040585e-01	1.717563e-01	-1.879074e-01	5.188591e+00	-9.015760e+00	2.958214e+00	-7.536653e+00	1.049487e+01
200           	3.321695e-01	5.152236e+00	-4.820066e+00	-9.521404e-03	-1.854371e-01	1.759157e-01	-1.806764e-01	4.986151e+00	-8.224403e+00	2.985380e+00	-6.731712e+00	9.717093e+00
250           	3.253908e-01	4.213303e+00	-3.887912e+00	1.355347e-02	-1.725675e-01	1.861210e-01	-1.793442e-01	4.050607e+00	-6.949185e+00	2.367553e+00	-5.765408e+00	8.132962e+00
300           	3.292708e-01	3.361245e+00	-3.031975e+00	1.094791e-02	-1.738773e-01	1.848252e-01	-1.793513e-01	3.196610e+00	-6.071071e+00	1.871842e+00	-5.135149e+00	7.006992e+00
350           	3.447273e-01	2.348453e+00	-2.003725e+00	1.120447e-02	-1.746048e-01	1.858092e-01	-1.802070e-01	2.176089e+00	-5.101956e+00	1.265855e+00	-4.469028e+00	5.734883e+00
400           	3.436631e-01	2.258937e+00	-1.915274e+00	1.042151e-02	-1.759085e-01	1.863300e-01	-1.811192e-01	2.087106e+00	-4.996923e+00	1.159065e+00	-4.417390e+00	5.576456e+00
