# Force and moment coefficients
# dragDir     : (1.000000e+00 0.000000e+00 0.000000e+00)
# sideDir     : (0.000000e+00 0.000000e+00 -1.000000e+00)
# liftDir     : (0.000000e+00 1.000000e+00 0.000000e+00)
# rollAxis    : (1.000000e+00 0.000000e+00 0.000000e+00)
# pitchAxis   : (0.000000e+00 0.000000e+00 -1.000000e+00)
# yawAxis     : (0.000000e+00 1.000000e+00 0.000000e+00)
# magUInf     : 2.300000e+01
# lRef        : 1.000000e+00
# Aref        : 1.000000e+00
# CofR        : (0.000000e+00 0.000000e+00 0.000000e+00)
#
# Time        	Cd            	Cd(f)         	Cd(r)         	Cl            	Cl(f)         	Cl(r)         	CmPitch       	CmRoll        	CmYaw         	Cs            	Cs(f)         	Cs(r)         
50            	2.052641e-01	6.265476e+00	-6.060212e+00	-4.471395e-02	-1.222621e-01	7.754810e-02	-9.990508e-02	6.162844e+00	-8.443908e+00	2.931185e+00	-6.978315e+00	9.909500e+00
100           	1.649207e-01	2.846608e+00	-2.681688e+00	-2.560747e-02	-9.577279e-02	7.016532e-02	-8.296905e-02	2.764148e+00	-4.598171e+00	1.377575e+00	-3.909384e+00	5.286959e+00
150           	1.428382e-01	1.568260e+00	-1.425421e+00	-7.145304e-03	-8.380801e-02	7.666270e-02	-8.023536e-02	1.496841e+00	-2.950196e+00	7.399431e-01	-2.580224e+00	3.320167e+00
200           	1.292270e-01	9.383269e-01	-8.090998e-01	2.512665e-03	-7.810682e-02	8.061949e-02	-7.936315e-02	8.737133e-01	-2.111680e+00	4.163091e-01	-1.903525e+00	2.319834e+00
250           	1.254561e-01	6.116624e-01	-4.862062e-01	9.001092e-03	-7.444062e-02	8.344171e-02	-7.894116e-02	5.489343e-01	-1.677194e+00	2.370836e-01	-1.558652e+00	1.795735e+00
300           	1.288315e-01	4.562766e-01	-3.274451e-01	1.077508e-02	-7.344650e-02	8.422158e-02	-7.883404e-02	3.918608e-01	-1.482800e+00	1.468911e-01	-1.409355e+00	1.556246e+00
350           	1.342243e-01	3.951194e-01	-2.608950e-01	1.114595e-02	-7.324340e-02	8.438935e-02	-7.881638e-02	3.280072e-01	-1.420028e+00	1.078255e-01	-1.366116e+00	1.473941e+00
400           	1.359452e-01	3.598193e-01	-2.238741e-01	1.089559e-02	-7.333189e-02	8.422748e-02	-7.877969e-02	2.918467e-01	-1.385906e+00	8.927928e-02	-1.341267e+00	1.430546e+00
