# Force and moment coefficients
# dragDir     : (1.000000e+00 0.000000e+00 0.000000e+00)
# sideDir     : (0.000000e+00 0.000000e+00 -1.000000e+00)
# liftDir     : (0.000000e+00 1.000000e+00 0.000000e+00)
# rollAxis    : (1.000000e+00 0.000000e+00 0.000000e+00)
# pitchAxis   : (0.000000e+00 0.000000e+00 -1.000000e+00)
# yawAxis     : (0.000000e+00 1.000000e+00 0.000000e+00)
# magUInf     : 2.400000e+01
# lRef        : 1.000000e+00
# Aref        : 1.000000e+00
# CofR        : (0.000000e+00 0.000000e+00 0.000000e+00)
#
# Time        	Cd            	Cd(f)         	Cd(r)         	Cl            	Cl(f)         	Cl(r)         	CmPitch       	CmRoll        	CmYaw         	Cs            	Cs(f)         	Cs(r)         
50            	2.586515e-01	7.199909e+00	-6.941258e+00	-3.856325e-02	-1.261939e-01	8.763063e-02	-1.069123e-01	7.070583e+00	-9.393990e+00	3.221855e+00	-7.783063e+00	1.100492e+01
100           	1.843592e-01	3.118930e+00	-2.934570e+00	-2.622579e-02	-9.157556e-02	6.534978e-02	-7.846267e-02	3.026750e+00	-4.836654e+00	1.549542e+00	-4.061883e+00	5.611425e+00
150           	1.543910e-01	2.103989e+00	-1.949598e+00	-1.261803e-02	-7.971035e-02	6.709232e-02	-7.340134e-02	2.026793e+00	-3.521781e+00	1.155552e+00	-2.944005e+00	4.099557e+00
200           	1.297537e-01	2.012592e+00	-1.882838e+00	-3.719299e-03	-7.243637e-02	6.871707e-02	-7.057672e-02	1.947715e+00	-3.212657e+00	1.166164e+00	-2.629575e+00	3.795739e+00
250           	1.271058e-01	1.645821e+00	-1.518716e+00	5.294323e-03	-6.740918e-02	7.270350e-02	-7.005634e-02	1.582269e+00	-2.714525e+00	9.248255e-01	-2.252113e+00	3.176938e+00
300           	1.286214e-01	1.312987e+00	-1.184365e+00	4.276526e-03	-6.792084e-02	7.219736e-02	-7.005910e-02	1.248676e+00	-2.371512e+00	7.311884e-01	-2.005918e+00	2.737106e+00
350           	1.346591e-01	9.173644e-01	-7.827053e-01	4.376746e-03	-6.820498e-02	7.258173e-02	-7.039336e-02	8.500348e-01	-1.992951e+00	4.944745e-01	-1.745714e+00	2.240189e+00
400           	1.342434e-01	8.823974e-01	-7.481540e-01	4.070901e-03	-6.871425e-02	7.278515e-02	-7.074970e-02	8.152757e-01	-1.951923e+00	4.527599e-01	-1.725543e+00	2.178303e+00
