# Force and moment coefficients
# dragDir     : (1.000000e+00 0.000000e+00 0.000000e+00)
# sideDir     : (0.000000e+00 0.000000e+00 -1.000000e+00)
# liftDir     : (0.000000e+00 1.000000e+00 0.000000e+00)
# rollAxis    : (1.000000e+00 0.000000e+00 0.000000e+00)
# pitchAxis   : (0.000000e+00 0.000000e+00 -1.000000e+00)
# yawAxis     : (0.000000e+00 1.000000e+00 0.000000e+00)
# magUInf     : 1.000000e+00
# lRef        : 1.000000e+00
# Aref        : 1.000000e+00
# CofR        : (0.000000e+00 0.000000e+00 0.000000e+00)
#
# Time        	Cd            	Cd(f)         	Cd(r)         	Cl            	Cl(f)         	Cl(r)         	CmPitch       	CmRoll        	CmYaw         	Cs            	Cs(f)         	Cs(r)         
50            	1.489833e+02	4.147148e+03	-3.998164e+03	-2.221243e+01	-7.268767e+01	5.047524e+01	-6.158146e+01	4.072656e+03	-5.410938e+03	1.855788e+03	-4.483044e+03	6.338832e+03
100           	1.061909e+02	1.796503e+03	-1.690313e+03	-1.510605e+01	-5.274753e+01	3.764147e+01	-4.519450e+01	1.743408e+03	-2.785913e+03	8.925360e+02	-2.339645e+03	3.232181e+03
150           	8.892919e+01	1.211898e+03	-1.122968e+03	-7.267984e+00	-4.591316e+01	3.864518e+01	-4.227917e+01	1.167433e+03	-2.028546e+03	6.655981e+02	-1.695747e+03	2.361345e+03
200           	7.473813e+01	1.159253e+03	-1.084515e+03	-2.142316e+00	-4.172335e+01	3.958103e+01	-4.065219e+01	1.121884e+03	-1.850491e+03	6.717106e+02	-1.514635e+03	2.186346e+03
250           	7.321292e+01	9.479931e+02	-8.747802e+02	3.049530e+00	-3.882769e+01	4.187722e+01	-4.035245e+01	9.113867e+02	-1.563567e+03	5.326995e+02	-1.297217e+03	1.829916e+03
300           	7.408593e+01	7.562802e+02	-6.821943e+02	2.463279e+00	-3.912240e+01	4.158568e+01	-4.035404e+01	7.192373e+02	-1.365991e+03	4.211645e+02	-1.155409e+03	1.576573e+03
350           	7.756364e+01	5.284019e+02	-4.508382e+02	2.521006e+00	-3.928607e+01	4.180708e+01	-4.054657e+01	4.896200e+02	-1.147940e+03	2.848173e+02	-1.005531e+03	1.290349e+03
400           	7.732421e+01	5.082609e+02	-4.309367e+02	2.344839e+00	-3.957941e+01	4.192424e+01	-4.075182e+01	4.695988e+02	-1.124308e+03	2.607897e+02	-9.939128e+02	1.254702e+03
