# Force and moment coefficients
# dragDir     : (1.000000e+00 0.000000e+00 0.000000e+00)
# sideDir     : (0.000000e+00 0.000000e+00 -1.000000e+00)
# liftDir     : (0.000000e+00 1.000000e+00 0.000000e+00)
# rollAxis    : (1.000000e+00 0.000000e+00 0.000000e+00)
# pitchAxis   : (0.000000e+00 0.000000e+00 -1.000000e+00)
# yawAxis     : (0.000000e+00 1.000000e+00 0.000000e+00)
# magUInf     : 8.000000e+00
# lRef        : 1.000000e+00
# Aref        : 1.000000e+00
# CofR        : (0.000000e+00 0.000000e+00 0.000000e+00)
#
# Time        	Cd            	Cd(f)         	Cd(r)         	Cl            	Cl(f)         	Cl(r)         	CmPitch       	CmRoll        	CmYaw         	Cs            	Cs(f)         	Cs(r)         
50            	2.327864e+00	6.479918e+01	-6.247132e+01	-3.470693e-01	-1.135745e+00	7.886757e-01	-9.622103e-01	6.363525e+01	-8.454591e+01	2.899669e+01	-7.004756e+01	9.904426e+01
100           	1.659233e+00	2.807037e+01	-2.641113e+01	-2.360321e-01	-8.241801e-01	5.881480e-01	-7.061640e-01	2.724075e+01	-4.352989e+01	1.394588e+01	-3.655695e+01	5.050282e+01
150           	1.389519e+00	1.893590e+01	-1.754638e+01	-1.135622e-01	-7.173931e-01	6.038309e-01	-6.606120e-01	1.824114e+01	-3.169603e+01	1.039997e+01	-2.649605e+01	3.689602e+01
200           	1.167783e+00	1.811333e+01	-1.694555e+01	-3.347369e-02	-6.519273e-01	6.184537e-01	-6.351905e-01	1.752944e+01	-2.891392e+01	1.049548e+01	-2.366618e+01	3.416165e+01
250           	1.143952e+00	1.481239e+01	-1.366844e+01	4.764891e-02	-6.066826e-01	6.543315e-01	-6.305071e-01	1.424042e+01	-2.443073e+01	8.323429e+00	-2.026901e+01	2.859244e+01
300           	1.157593e+00	1.181688e+01	-1.065929e+01	3.848873e-02	-6.112875e-01	6.497763e-01	-6.305319e-01	1.123808e+01	-2.134361e+01	6.580695e+00	-1.805326e+01	2.463395e+01
350           	1.211932e+00	8.256279e+00	-7.044347e+00	3.939071e-02	-6.138448e-01	6.532356e-01	-6.335402e-01	7.650313e+00	-1.793656e+01	4.450270e+00	-1.571143e+01	2.016170e+01
400           	1.208191e+00	7.941577e+00	-6.733386e+00	3.663811e-02	-6.184282e-01	6.550663e-01	-6.367473e-01	7.337482e+00	-1.756731e+01	4.074840e+00	-1.552989e+01	1.960473e+01
