# Force and moment coefficients
# dragDir     : (1.000000e+00 0.000000e+00 0.000000e+00)
# sideDir     : (0.000000e+00 0.000000e+00 -1.000000e+00)
# liftDir     : (0.000000e+00 1.000000e+00 0.000000e+00)
# rollAxis    : (1.000000e+00 0.000000e+00 0.000000e+00)
# pitchAxis   : (0.000000e+00 0.000000e+00 -1.000000e+00)
# yawAxis     : (0.000000e+00 1.000000e+00 0.000000e+00)
# magUInf     : 2.800000e+01
# lRef        : 1.000000e+00
# Aref        : 1.000000e+00
# CofR        : (0.000000e+00 0.000000e+00 0.000000e+00)
#
# Time        	Cd            	Cd(f)         	Cd(r)         	Cl            	Cl(f)         	Cl(r)         	CmPitch       	CmRoll        	CmYaw         	Cs            	Cs(f)         	Cs(r)         
50            	1.900297e-01	5.289729e+00	-5.099699e+00	-2.833218e-02	-9.271387e-02	6.438169e-02	-7.854778e-02	5.194714e+00	-6.901707e+00	2.367077e+00	-5.718169e+00	8.085245e+00
100           	1.354476e-01	2.291458e+00	-2.156011e+00	-1.926793e-02	-6.728001e-02	4.801208e-02	-5.764604e-02	2.223735e+00	-3.553460e+00	1.138439e+00	-2.984241e+00	4.122679e+00
150           	1.134301e-01	1.545788e+00	-1.432358e+00	-9.270387e-03	-5.856271e-02	4.929232e-02	-5.392751e-02	1.489073e+00	-2.587431e+00	8.489771e-01	-2.162942e+00	3.011920e+00
200           	9.532925e-02	1.478639e+00	-1.383310e+00	-2.732546e-03	-5.321856e-02	5.048601e-02	-5.185229e-02	1.430974e+00	-2.360320e+00	8.567737e-01	-1.931933e+00	2.788706e+00
250           	9.338383e-02	1.209175e+00	-1.115791e+00	3.889707e-03	-4.952511e-02	5.341482e-02	-5.146996e-02	1.162483e+00	-1.994345e+00	6.794636e-01	-1.654613e+00	2.334077e+00
300           	9.449736e-02	9.646431e-01	-8.701458e-01	3.141937e-03	-4.990102e-02	5.304296e-02	-5.147199e-02	9.173945e-01	-1.742335e+00	5.371996e-01	-1.473735e+00	2.010935e+00
350           	9.893321e-02	6.739820e-01	-5.750488e-01	3.215568e-03	-5.010978e-02	5.332535e-02	-5.171757e-02	6.245154e-01	-1.464209e+00	3.632874e-01	-1.282566e+00	1.645853e+00
400           	9.862781e-02	6.482920e-01	-5.496642e-01	2.990866e-03	-5.048394e-02	5.347480e-02	-5.197937e-02	5.989781e-01	-1.434066e+00	3.326400e-01	-1.267746e+00	1.600386e+00
