# Force and moment coefficients
# dragDir     : (1.000000e+00 0.000000e+00 0.000000e+00)
# sideDir     : (0.000000e+00 0.000000e+00 -1.000000e+00)
# liftDir     : (0.000000e+00 1.000000e+00 0.000000e+00)
# rollAxis    : (1.000000e+00 0.000000e+00 0.000000e+00)
# pitchAxis   : (0.000000e+00 0.000000e+00 -1.000000e+00)
# yawAxis     : (0.000000e+00 1.000000e+00 0.000000e+00)
# magUInf     : 2.600000e+01
# lRef        : 1.000000e+00
# Aref        : 1.000000e+00
# CofR        : (0.000000e+00 0.000000e+00 0.000000e+00)
#
# Time        	Cd            	Cd(f)         	Cd(r)         	Cl            	Cl(f)         	Cl(r)         	CmPitch       	CmRoll        	CmYaw         	Cs            	Cs(f)         	Cs(r)         
50            	2.203895e-01	6.134834e+00	-5.914444e+00	-3.285863e-02	-1.075261e-01	7.466752e-02	-9.109683e-02	6.024639e+00	-8.004347e+00	2.745249e+00	-6.631722e+00	9.376971e+00
100           	1.570871e-01	2.657549e+00	-2.500462e+00	-2.234623e-02	-7.802888e-02	5.568265e-02	-6.685577e-02	2.579006e+00	-4.121173e+00	1.320320e+00	-3.461013e+00	4.781332e+00
150           	1.315521e-01	1.792748e+00	-1.661196e+00	-1.075145e-02	-6.791888e-02	5.716742e-02	-6.254315e-02	1.726972e+00	-3.000808e+00	9.846125e-01	-2.508501e+00	3.493114e+00
200           	1.105594e-01	1.714871e+00	-1.604312e+00	-3.169106e-03	-6.172093e-02	5.855183e-02	-6.013638e-02	1.659592e+00	-2.737412e+00	9.936547e-01	-2.240585e+00	3.234239e+00
250           	1.083031e-01	1.402357e+00	-1.294054e+00	4.511139e-03	-5.743741e-02	6.194855e-02	-5.969298e-02	1.348205e+00	-2.312968e+00	7.880170e-01	-1.918960e+00	2.706977e+00
300           	1.095946e-01	1.118758e+00	-1.009163e+00	3.643904e-03	-5.787338e-02	6.151728e-02	-5.969533e-02	1.063960e+00	-2.020697e+00	6.230244e-01	-1.709184e+00	2.332209e+00
350           	1.147391e-01	7.816596e-01	-6.669205e-01	3.729298e-03	-5.811549e-02	6.184479e-02	-5.998014e-02	7.242900e-01	-1.698136e+00	4.213274e-01	-1.487472e+00	1.908800e+00
400           	1.143849e-01	7.518653e-01	-6.374804e-01	3.468697e-03	-5.854942e-02	6.201811e-02	-6.028376e-02	6.946728e-01	-1.663177e+00	3.857836e-01	-1.470285e+00	1.856069e+00
