# Force and moment coefficients
# dragDir     : (1.000000e+00 0.000000e+00 0.000000e+00)
# sideDir     : (0.000000e+00 0.000000e+00 -1.000000e+00)
# liftDir     : (0.000000e+00 1.000000e+00 0.000000e+00)
# rollAxis    : (1.000000e+00 0.000000e+00 0.000000e+00)
# pitchAxis   : (0.000000e+00 0.000000e+00 -1.000000e+00)
# yawAxis     : (0.000000e+00 1.000000e+00 0.000000e+00)
# magUInf     : 2.100000e+01
# lRef        : 1.000000e+00
# Aref        : 1.000000e+00
# CofR        : (0.000000e+00 0.000000e+00 0.000000e+00)
#
# Time        	Cd            	Cd(f)         	Cd(r)         	Cl            	Cl(f)         	Cl(r)         	CmPitch       	CmRoll        	CmYaw         	Cs            	Cs(f)         	Cs(r)         
50            	3.378305e-01	9.403963e+00	-9.066132e+00	-5.036833e-02	-1.648247e-01	1.144563e-01	-1.396405e-01	9.235048e+00	-1.226970e+01	4.208137e+00	-1.016563e+01	1.437377e+01
100           	2.407957e-01	4.073704e+00	-3.832908e+00	-3.425409e-02	-1.196089e-01	8.535481e-02	-1.024819e-01	3.953306e+00	-6.317262e+00	2.023891e+00	-5.305317e+00	7.329208e+00
150           	2.016535e-01	2.748067e+00	-2.546414e+00	-1.648069e-02	-1.041115e-01	8.763079e-02	-9.587113e-02	2.647240e+00	-4.599877e+00	1.509293e+00	-3.845231e+00	5.354524e+00
200           	1.694742e-01	2.628692e+00	-2.459217e+00	-4.857859e-03	-9.461077e-02	8.975291e-02	-9.218184e-02	2.543955e+00	-4.196124e+00	1.523153e+00	-3.434547e+00	4.957700e+00
250           	1.660157e-01	2.149644e+00	-1.983629e+00	6.915034e-03	-8.804464e-02	9.495968e-02	-9.150216e-02	2.066636e+00	-3.545503e+00	1.207935e+00	-2.941535e+00	4.149470e+00
300           	1.679953e-01	1.714921e+00	-1.546926e+00	5.585666e-03	-8.871293e-02	9.429860e-02	-9.150576e-02	1.630924e+00	-3.097485e+00	9.550215e-01	-2.619974e+00	3.574996e+00
350           	1.758813e-01	1.198190e+00	-1.022309e+00	5.716566e-03	-8.908406e-02	9.480063e-02	-9.194234e-02	1.110250e+00	-2.603039e+00	6.458442e-01	-2.280116e+00	2.925961e+00
400           	1.753383e-01	1.152519e+00	-9.771808e-01	5.317095e-03	-8.974922e-02	9.506631e-02	-9.240777e-02	1.064850e+00	-2.549450e+00	5.913599e-01	-2.253770e+00	2.845130e+00
