# Force and moment coefficients
# dragDir     : (1.000000e+00 0.000000e+00 0.000000e+00)
# sideDir     : (0.000000e+00 0.000000e+00 -1.000000e+00)
# liftDir     : (0.000000e+00 1.000000e+00 0.000000e+00)
# rollAxis    : (1.000000e+00 0.000000e+00 0.000000e+00)
# pitchAxis   : (0.000000e+00 0.000000e+00 -1.000000e+00)
# yawAxis     : (0.000000e+00 1.000000e+00 0.000000e+00)
# magUInf     : 9.000000e+00
# lRef        : 1.000000e+00
# Aref        : 1.000000e+00
# CofR        : (0.000000e+00 0.000000e+00 0.000000e+00)
#
# Time        	Cd            	Cd(f)         	Cd(r)         	Cl            	Cl(f)         	Cl(r)         	CmPitch       	CmRoll        	CmYaw         	Cs            	Cs(f)         	Cs(r)         
50            	1.695593e+00	4.253168e+01	-4.083609e+01	-2.324387e-01	-7.652903e-01	5.328516e-01	-6.490709e-01	4.168389e+01	-5.760455e+01	1.973524e+01	-4.773693e+01	6.747217e+01
100           	1.330775e+00	1.944853e+01	-1.811776e+01	-1.273905e-01	-5.931058e-01	4.657153e-01	-5.294105e-01	1.878315e+01	-3.147028e+01	9.201322e+00	-2.686962e+01	3.607094e+01
150           	1.170470e+00	1.141811e+01	-1.024764e+01	-1.461398e-02	-5.248671e-01	5.102531e-01	-5.175601e-01	1.083287e+01	-2.120235e+01	5.311712e+00	-1.854649e+01	2.385821e+01
200           	1.077552e+00	7.349637e+00	-6.272086e+00	1.762068e-02	-5.041347e-01	5.217554e-01	-5.129451e-01	6.810862e+00	-1.594173e+01	3.265079e+00	-1.430919e+01	1.757427e+01
250           	1.034533e+00	5.102128e+00	-4.067595e+00	-5.501184e-03	-5.137635e-01	5.082623e-01	-5.110129e-01	4.584861e+00	-1.317426e+01	2.117933e+00	-1.211530e+01	1.423323e+01
300           	1.008810e+00	3.796725e+00	-2.787914e+00	-6.528168e-02	-5.409760e-01	4.756944e-01	-5.083352e-01	3.292320e+00	-1.166394e+01	1.509067e+00	-1.090941e+01	1.241848e+01
350           	9.766700e-01	3.265770e+00	-2.289100e+00	-9.157178e-02	-5.528497e-01	4.612779e-01	-5.070638e-01	2.777435e+00	-1.095964e+01	1.318163e+00	-1.030056e+01	1.161872e+01
400           	9.546090e-01	3.017486e+00	-2.062877e+00	-1.021139e-01	-5.571899e-01	4.550760e-01	-5.061330e-01	2.540181e+00	-1.064706e+01	1.255068e+00	-1.001952e+01	1.127459e+01
