# Force and moment coefficients
# dragDir     : (1.000000e+00 0.000000e+00 0.000000e+00)
# sideDir     : (0.000000e+00 0.000000e+00 -1.000000e+00)
# liftDir     : (0.000000e+00 1.000000e+00 0.000000e+00)
# rollAxis    : (1.000000e+00 0.000000e+00 0.000000e+00)
# pitchAxis   : (0.000000e+00 0.000000e+00 -1.000000e+00)
# yawAxis     : (0.000000e+00 1.000000e+00 0.000000e+00)
# magUInf     : 1.400000e+01
# lRef        : 1.000000e+00
# Aref        : 1.000000e+00
# CofR        : (0.000000e+00 0.000000e+00 0.000000e+00)
#
# Time        	Cd            	Cd(f)         	Cd(r)         	Cl            	Cl(f)         	Cl(r)         	CmPitch       	CmRoll        	CmYaw         	Cs            	Cs(f)         	Cs(r)         
50            	7.601187e-01	2.115892e+01	-2.039880e+01	-1.133287e-01	-3.708555e-01	2.575267e-01	-3.141911e-01	2.077886e+01	-2.760683e+01	9.468307e+00	-2.287267e+01	3.234098e+01
100           	5.417902e-01	9.165834e+00	-8.624044e+00	-7.707170e-02	-2.691200e-01	1.920483e-01	-2.305842e-01	8.894939e+00	-1.421384e+01	4.553755e+00	-1.193696e+01	1.649072e+01
150           	4.537203e-01	6.183151e+00	-5.729431e+00	-3.708155e-02	-2.342508e-01	1.971693e-01	-2.157100e-01	5.956291e+00	-1.034972e+01	3.395909e+00	-8.651770e+00	1.204768e+01
200           	3.813170e-01	5.914556e+00	-5.533239e+00	-1.093018e-02	-2.128742e-01	2.019441e-01	-2.074091e-01	5.723898e+00	-9.441279e+00	3.427095e+00	-7.727731e+00	1.115483e+01
250           	3.735353e-01	4.836700e+00	-4.463164e+00	1.555883e-02	-1.981004e-01	2.136593e-01	-2.058799e-01	4.649932e+00	-7.977381e+00	2.717854e+00	-6.618454e+00	9.336308e+00
300           	3.779894e-01	3.858573e+00	-3.480583e+00	1.256775e-02	-1.996041e-01	2.121718e-01	-2.058880e-01	3.669578e+00	-6.969341e+00	2.148798e+00	-5.894942e+00	8.043740e+00
350           	3.957328e-01	2.695928e+00	-2.300195e+00	1.286227e-02	-2.004391e-01	2.133014e-01	-2.068703e-01	2.498061e+00	-5.856837e+00	1.453149e+00	-5.130262e+00	6.583412e+00
400           	3.945113e-01	2.593168e+00	-2.198657e+00	1.196346e-02	-2.019357e-01	2.138992e-01	-2.079175e-01	2.395912e+00	-5.736263e+00	1.330560e+00	-5.070983e+00	6.401543e+00
