# Force and moment coefficients
# dragDir     : (1.000000e+00 0.000000e+00 0.000000e+00)
# sideDir     : (0.000000e+00 0.000000e+00 -1.000000e+00)
# liftDir     : (0.000000e+00 1.000000e+00 0.000000e+00)
# rollAxis    : (1.000000e+00 0.000000e+00 0.000000e+00)
# pitchAxis   : (0.000000e+00 0.000000e+00 -1.000000e+00)
# yawAxis     : (0.000000e+00 1.000000e+00 0.000000e+00)
# magUInf     : 1.700000e+01
# lRef        : 1.000000e+00
# Aref        : 1.000000e+00
# CofR        : (0.000000e+00 0.000000e+00 0.000000e+00)
#
# Time        	Cd            	Cd(f)         	Cd(r)         	Cl            	Cl(f)         	Cl(r)         	CmPitch       	CmRoll        	CmYaw         	Cs            	Cs(f)         	Cs(r)         
50            	5.155131e-01	1.434999e+01	-1.383448e+01	-7.685963e-02	-2.515144e-01	1.746548e-01	-2.130846e-01	1.409224e+01	-1.872297e+01	6.421413e+00	-1.551226e+01	2.193368e+01
100           	3.674425e-01	6.216275e+00	-5.848832e+00	-5.227008e-02	-1.825174e-01	1.302473e-01	-1.563823e-01	6.032554e+00	-9.639836e+00	3.088360e+00	-8.095656e+00	1.118402e+01
150           	3.077135e-01	4.193417e+00	-3.885704e+00	-2.514873e-02	-1.588691e-01	1.337203e-01	-1.462947e-01	4.039560e+00	-7.019190e+00	2.303108e+00	-5.867636e+00	8.170744e+00
200           	2.586095e-01	4.011256e+00	-3.752647e+00	-7.412858e-03	-1.443715e-01	1.369586e-01	-1.406650e-01	3.881951e+00	-6.403082e+00	2.324258e+00	-5.240953e+00	7.565211e+00
250           	2.533319e-01	3.280253e+00	-3.026921e+00	1.055201e-02	-1.343519e-01	1.449039e-01	-1.396279e-01	3.153587e+00	-5.410265e+00	1.843251e+00	-4.488640e+00	6.331891e+00
300           	2.563527e-01	2.616887e+00	-2.360534e+00	8.523456e-03	-1.353716e-01	1.438951e-01	-1.396334e-01	2.488710e+00	-4.726612e+00	1.457317e+00	-3.997954e+00	5.455270e+00
350           	2.683863e-01	1.828380e+00	-1.559994e+00	8.723203e-03	-1.359380e-01	1.446612e-01	-1.402996e-01	1.694187e+00	-3.972111e+00	9.855270e-01	-3.479347e+00	4.464874e+00
400           	2.675578e-01	1.758688e+00	-1.491131e+00	8.113630e-03	-1.369530e-01	1.450666e-01	-1.410098e-01	1.624909e+00	-3.890338e+00	9.023866e-01	-3.439144e+00	4.341531e+00
