# Force and moment coefficients
# dragDir     : (1.000000e+00 0.000000e+00 0.000000e+00)
# sideDir     : (0.000000e+00 0.000000e+00 -1.000000e+00)
# liftDir     : (0.000000e+00 1.000000e+00 0.000000e+00)
# rollAxis    : (1.000000e+00 0.000000e+00 0.000000e+00)
# pitchAxis   : (0.000000e+00 0.000000e+00 -1.000000e+00)
# yawAxis     : (0.000000e+00 1.000000e+00 0.000000e+00)
# magUInf     : 1.000000e-01
# lRef        : 1.000000e+00
# Aref        : 1.000000e+00
# CofR        : (0.000000e+00 0.000000e+00 0.000000e+00)
#
# Time        	Cd            	Cd(f)         	Cd(r)         	Cl            	Cl(f)         	Cl(r)         	CmPitch       	CmRoll        	CmYaw         	Cs            	Cs(f)         	Cs(r)         
50            	1.373430e+04	3.445066e+05	-3.307723e+05	-1.882753e+03	-6.198851e+03	4.316098e+03	-5.257474e+03	3.376395e+05	-4.665969e+05	1.598555e+05	-3.866691e+05	5.465246e+05
100           	1.077927e+04	1.575331e+05	-1.467539e+05	-1.031863e+03	-4.804157e+03	3.772294e+03	-4.288225e+03	1.521435e+05	-2.549092e+05	7.453070e+04	-2.176439e+05	2.921746e+05
150           	9.480810e+03	9.248666e+04	-8.300585e+04	-1.183732e+02	-4.251423e+03	4.133050e+03	-4.192237e+03	8.774625e+04	-1.717390e+05	4.302487e+04	-1.502266e+05	1.932515e+05
200           	8.728168e+03	5.953206e+04	-5.080389e+04	1.427275e+02	-4.083491e+03	4.226219e+03	-4.154855e+03	5.516798e+04	-1.291280e+05	2.644714e+04	-1.159044e+05	1.423516e+05
250           	8.379718e+03	4.132723e+04	-3.294752e+04	-4.455959e+01	-4.161485e+03	4.116925e+03	-4.139205e+03	3.713737e+04	-1.067115e+05	1.715526e+04	-9.813391e+04	1.152892e+05
300           	8.171364e+03	3.075347e+04	-2.258211e+04	-5.287816e+02	-4.381906e+03	3.853124e+03	-4.117515e+03	2.666779e+04	-9.447794e+04	1.222344e+04	-8.836622e+04	1.005897e+05
350           	7.911027e+03	2.645274e+04	-1.854171e+04	-7.417314e+02	-4.478083e+03	3.736351e+03	-4.107217e+03	2.249722e+04	-8.877310e+04	1.067712e+04	-8.343454e+04	9.411166e+04
400           	7.732333e+03	2.444163e+04	-1.670930e+04	-8.271228e+02	-4.513238e+03	3.686116e+03	-4.099677e+03	2.057547e+04	-8.624117e+04	1.016605e+04	-8.115815e+04	9.132420e+04
