# Force and moment coefficients
# dragDir     : (1.000000e+00 0.000000e+00 0.000000e+00)
# sideDir     : (0.000000e+00 0.000000e+00 -1.000000e+00)
# liftDir     : (0.000000e+00 1.000000e+00 0.000000e+00)
# rollAxis    : (1.000000e+00 0.000000e+00 0.000000e+00)
# pitchAxis   : (0.000000e+00 0.000000e+00 -1.000000e+00)
# yawAxis     : (0.000000e+00 1.000000e+00 0.000000e+00)
# magUInf     : 1.200000e+01
# lRef        : 1.000000e+00
# Aref        : 1.000000e+00
# CofR        : (0.000000e+00 0.000000e+00 0.000000e+00)
#
# Time        	Cd            	Cd(f)         	Cd(r)         	Cl            	Cl(f)         	Cl(r)         	CmPitch       	CmRoll        	CmYaw         	Cs            	Cs(f)         	Cs(r)         
50            	1.034606e+00	2.879964e+01	-2.776503e+01	-1.542530e-01	-5.047755e-01	3.505225e-01	-4.276490e-01	2.828233e+01	-3.757596e+01	1.288742e+01	-3.113225e+01	4.401967e+01
100           	7.374367e-01	1.247572e+01	-1.173828e+01	-1.049031e-01	-3.663023e-01	2.613991e-01	-3.138507e-01	1.210700e+01	-1.934662e+01	6.198167e+00	-1.624753e+01	2.244570e+01
150           	6.175638e-01	8.415955e+00	-7.798392e+00	-5.047211e-02	-3.188414e-01	2.683693e-01	-2.936053e-01	8.107173e+00	-1.408712e+01	4.622209e+00	-1.177602e+01	1.639823e+01
200           	5.190148e-01	8.050368e+00	-7.531354e+00	-1.487719e-02	-2.897455e-01	2.748683e-01	-2.823069e-01	7.790861e+00	-1.285063e+01	4.664657e+00	-1.051830e+01	1.518296e+01
250           	5.084231e-01	6.583286e+00	-6.074862e+00	2.117729e-02	-2.696367e-01	2.908140e-01	-2.802254e-01	6.329074e+00	-1.085810e+01	3.699302e+00	-9.008451e+00	1.270775e+01
300           	5.144856e-01	5.251946e+00	-4.737460e+00	1.710610e-02	-2.716833e-01	2.887895e-01	-2.802364e-01	4.994703e+00	-9.486048e+00	2.924753e+00	-8.023671e+00	1.094842e+01
350           	5.386364e-01	3.669457e+00	-3.130821e+00	1.750698e-02	-2.728199e-01	2.903269e-01	-2.815734e-01	3.400139e+00	-7.971806e+00	1.977898e+00	-6.982857e+00	8.960755e+00
400           	5.369737e-01	3.529590e+00	-2.992616e+00	1.628360e-02	-2.748570e-01	2.911406e-01	-2.829988e-01	3.261103e+00	-7.807692e+00	1.811040e+00	-6.902172e+00	8.713212e+00
