# Force and moment coefficients
# dragDir     : (1.000000e+00 0.000000e+00 0.000000e+00)
# sideDir     : (0.000000e+00 0.000000e+00 -1.000000e+00)
# liftDir     : (0.000000e+00 1.000000e+00 0.000000e+00)
# rollAxis    : (1.000000e+00 0.000000e+00 0.000000e+00)
# pitchAxis   : (0.000000e+00 0.000000e+00 -1.000000e+00)
# yawAxis     : (0.000000e+00 1.000000e+00 0.000000e+00)
# magUInf     : 3.000000e+01
# lRef        : 1.000000e+00
# Aref        : 1.000000e+00
# CofR        : (0.000000e+00 0.000000e+00 0.000000e+00)
#
# Time        	Cd            	Cd(f)         	Cd(r)         	Cl            	Cl(f)         	Cl(r)         	CmPitch       	CmRoll        	CmYaw         	Cs            	Cs(f)         	Cs(r)         
50            	1.655370e-01	4.607942e+00	-4.442405e+00	-2.468048e-02	-8.076408e-02	5.608360e-02	-6.842384e-02	4.525173e+00	-6.012154e+00	2.061987e+00	-4.981160e+00	7.043147e+00
100           	1.179899e-01	1.996115e+00	-1.878125e+00	-1.678450e-02	-5.860836e-02	4.182386e-02	-5.021611e-02	1.937120e+00	-3.095459e+00	9.917067e-01	-2.599605e+00	3.591312e+00
150           	9.881021e-02	1.346553e+00	-1.247743e+00	-8.075537e-03	-5.101462e-02	4.293909e-02	-4.697685e-02	1.297148e+00	-2.253940e+00	7.395534e-01	-1.884163e+00	2.623717e+00
200           	8.304237e-02	1.288059e+00	-1.205017e+00	-2.380351e-03	-4.635928e-02	4.397893e-02	-4.516910e-02	1.246538e+00	-2.056101e+00	7.463451e-01	-1.682928e+00	2.429273e+00
250           	8.134769e-02	1.053326e+00	-9.719780e-01	3.388367e-03	-4.314187e-02	4.653024e-02	-4.483606e-02	1.012652e+00	-1.737296e+00	5.918883e-01	-1.441352e+00	2.033240e+00
300           	8.231770e-02	8.403114e-01	-7.579937e-01	2.736976e-03	-4.346934e-02	4.620631e-02	-4.483782e-02	7.991525e-01	-1.517768e+00	4.679606e-01	-1.283787e+00	1.751748e+00
350           	8.618182e-02	5.871132e-01	-5.009314e-01	2.801117e-03	-4.365119e-02	4.645231e-02	-4.505175e-02	5.440223e-01	-1.275489e+00	3.164637e-01	-1.117257e+00	1.433721e+00
400           	8.591579e-02	5.647344e-01	-4.788186e-01	2.605377e-03	-4.397712e-02	4.658249e-02	-4.527981e-02	5.217765e-01	-1.249231e+00	2.897664e-01	-1.104348e+00	1.394114e+00
