# Force and moment coefficients
# dragDir     : (1.000000e+00 0.000000e+00 0.000000e+00)
# sideDir     : (0.000000e+00 0.000000e+00 -1.000000e+00)
# liftDir     : (0.000000e+00 1.000000e+00 0.000000e+00)
# rollAxis    : (1.000000e+00 0.000000e+00 0.000000e+00)
# pitchAxis   : (0.000000e+00 0.000000e+00 -1.000000e+00)
# yawAxis     : (0.000000e+00 1.000000e+00 0.000000e+00)
# magUInf     : 1.600000e+01
# lRef        : 1.000000e+00
# Aref        : 1.000000e+00
# CofR        : (0.000000e+00 0.000000e+00 0.000000e+00)
#
# Time        	Cd            	Cd(f)         	Cd(r)         	Cl            	Cl(f)         	Cl(r)         	CmPitch       	CmRoll        	CmYaw         	Cs            	Cs(f)         	Cs(r)         
50            	5.364963e-01	1.345729e+01	-1.292079e+01	-7.354504e-02	-2.421426e-01	1.685976e-01	-2.053701e-01	1.318904e+01	-1.822644e+01	6.244354e+00	-1.510426e+01	2.134862e+01
100           	4.210654e-01	6.153638e+00	-5.732573e+00	-4.030715e-02	-1.876624e-01	1.473552e-01	-1.675088e-01	5.943105e+00	-9.957392e+00	2.911356e+00	-8.501714e+00	1.141307e+01
150           	3.703442e-01	3.612760e+00	-3.242416e+00	-4.623954e-03	-1.660712e-01	1.614473e-01	-1.637592e-01	3.427588e+00	-6.708556e+00	1.680659e+00	-5.868227e+00	7.548886e+00
200           	3.409441e-01	2.325471e+00	-1.984527e+00	5.575292e-03	-1.595114e-01	1.650867e-01	-1.622990e-01	2.154999e+00	-5.044063e+00	1.033091e+00	-4.527517e+00	5.560609e+00
250           	3.273327e-01	1.614345e+00	-1.287012e+00	-1.740609e-03	-1.625580e-01	1.608174e-01	-1.616877e-01	1.450679e+00	-4.168419e+00	6.701273e-01	-3.833356e+00	4.503483e+00
300           	3.191939e-01	1.201307e+00	-8.821135e-01	-2.065553e-02	-1.711682e-01	1.505127e-01	-1.608404e-01	1.041710e+00	-3.690545e+00	4.774781e-01	-3.451805e+00	3.929284e+00
350           	3.090245e-01	1.033310e+00	-7.242856e-01	-2.897388e-02	-1.749251e-01	1.459512e-01	-1.604382e-01	8.787978e-01	-3.467699e+00	4.170751e-01	-3.259162e+00	3.676237e+00
400           	3.020442e-01	9.547513e-01	-6.527071e-01	-3.230949e-02	-1.762984e-01	1.439889e-01	-1.601436e-01	8.037292e-01	-3.368796e+00	3.971114e-01	-3.170240e+00	3.567351e+00
