# Force and moment coefficients
# dragDir     : (1.000000e+00 0.000000e+00 0.000000e+00)
# sideDir     : (0.000000e+00 0.000000e+00 -1.000000e+00)
# liftDir     : (0.000000e+00 1.000000e+00 0.000000e+00)
# rollAxis    : (1.000000e+00 0.000000e+00 0.000000e+00)
# pitchAxis   : (0.000000e+00 0.000000e+00 -1.000000e+00)
# yawAxis     : (0.000000e+00 1.000000e+00 0.000000e+00)
# magUInf     : 2.500000e+01
# lRef        : 1.000000e+00
# Aref        : 1.000000e+00
# CofR        : (0.000000e+00 0.000000e+00 0.000000e+00)
#
# Time        	Cd            	Cd(f)         	Cd(r)         	Cl            	Cl(f)         	Cl(r)         	CmPitch       	CmRoll        	CmYaw         	Cs            	Cs(f)         	Cs(r)         
50            	2.383732e-01	6.635436e+00	-6.397063e+00	-3.553989e-02	-1.163003e-01	8.076039e-02	-9.853033e-02	6.516250e+00	-8.657501e+00	2.969261e+00	-7.172871e+00	1.014213e+01
100           	1.699054e-01	2.874406e+00	-2.704500e+00	-2.416969e-02	-8.439604e-02	6.022635e-02	-7.231120e-02	2.789453e+00	-4.457460e+00	1.428058e+00	-3.743431e+00	5.171489e+00
150           	1.422867e-01	1.939036e+00	-1.796749e+00	-1.162877e-02	-7.346106e-02	6.183228e-02	-6.764667e-02	1.867893e+00	-3.245674e+00	1.064957e+00	-2.713195e+00	3.778152e+00
200           	1.195810e-01	1.854805e+00	-1.735224e+00	-3.427706e-03	-6.675736e-02	6.332965e-02	-6.504351e-02	1.795014e+00	-2.960785e+00	1.074737e+00	-2.423416e+00	3.498153e+00
250           	1.171407e-01	1.516789e+00	-1.399648e+00	4.879248e-03	-6.212430e-02	6.700355e-02	-6.456392e-02	1.458219e+00	-2.501707e+00	8.523192e-01	-2.075547e+00	2.927866e+00
300           	1.185375e-01	1.210048e+00	-1.091511e+00	3.941246e-03	-6.259584e-02	6.653709e-02	-6.456647e-02	1.150780e+00	-2.185585e+00	6.738632e-01	-1.848654e+00	2.522517e+00
350           	1.241018e-01	8.454430e-01	-7.213412e-01	4.033609e-03	-6.285771e-02	6.689132e-02	-6.487452e-02	7.833921e-01	-1.836704e+00	4.557077e-01	-1.608850e+00	2.064558e+00
400           	1.237187e-01	8.132175e-01	-6.894988e-01	3.751742e-03	-6.332705e-02	6.707879e-02	-6.520292e-02	7.513581e-01	-1.798892e+00	4.172636e-01	-1.590260e+00	2.007524e+00
