# Force and moment coefficients
# dragDir     : (1.000000e+00 0.000000e+00 0.000000e+00)
# sideDir     : (0.000000e+00 0.000000e+00 -1.000000e+00)
# liftDir     : (0.000000e+00 1.000000e+00 0.000000e+00)
# rollAxis    : (1.000000e+00 0.000000e+00 0.000000e+00)
# pitchAxis   : (0.000000e+00 0.000000e+00 -1.000000e+00)
# yawAxis     : (0.000000e+00 1.000000e+00 0.000000e+00)
# magUInf     : 1.500000e+01
# lRef        : 1.000000e+00
# Aref        : 1.000000e+00
# CofR        : (0.000000e+00 0.000000e+00 0.000000e+00)
#
# Time        	Cd            	Cd(f)         	Cd(r)         	Cl            	Cl(f)         	Cl(r)         	CmPitch       	CmRoll        	CmYaw         	Cs            	Cs(f)         	Cs(r)         
50            	4.825987e-01	1.473083e+01	-1.424823e+01	-1.051275e-01	-2.874517e-01	1.823242e-01	-2.348879e-01	1.448953e+01	-1.985256e+01	6.891541e+00	-1.640679e+01	2.329834e+01
100           	3.877469e-01	6.692693e+00	-6.304946e+00	-6.020601e-02	-2.251725e-01	1.649665e-01	-1.950695e-01	6.498819e+00	-1.081081e+01	3.238832e+00	-9.191395e+00	1.243023e+01
150           	3.358285e-01	3.687153e+00	-3.351324e+00	-1.679940e-02	-1.970419e-01	1.802425e-01	-1.886422e-01	3.519238e+00	-6.936238e+00	1.739688e+00	-6.066394e+00	7.806082e+00
200           	3.038270e-01	2.206111e+00	-1.902284e+00	5.907554e-03	-1.836378e-01	1.895454e-01	-1.865916e-01	2.054197e+00	-4.964793e+00	9.787889e-01	-4.475399e+00	5.454188e+00
250           	2.949612e-01	1.438086e+00	-1.143125e+00	2.116257e-02	-1.750182e-01	1.961807e-01	-1.855994e-01	1.290606e+00	-3.943268e+00	5.574099e-01	-3.664564e+00	4.221973e+00
300           	3.028972e-01	1.072757e+00	-7.698598e-01	2.533341e-02	-1.726809e-01	1.980143e-01	-1.853476e-01	9.213084e-01	-3.486228e+00	3.453572e-01	-3.313550e+00	3.658907e+00
350           	3.155764e-01	9.289695e-01	-6.133931e-01	2.620537e-02	-1.722034e-01	1.984087e-01	-1.853061e-01	7.711813e-01	-3.338645e+00	2.535096e-01	-3.211890e+00	3.465400e+00
400           	3.196223e-01	8.459751e-01	-5.263528e-01	2.561675e-02	-1.724114e-01	1.980282e-01	-1.852198e-01	6.861639e-01	-3.258420e+00	2.099055e-01	-3.153467e+00	3.363373e+00
