# Force and moment coefficients
# dragDir     : (1.000000e+00 0.000000e+00 0.000000e+00)
# sideDir     : (0.000000e+00 0.000000e+00 -1.000000e+00)
# liftDir     : (0.000000e+00 1.000000e+00 0.000000e+00)
# rollAxis    : (1.000000e+00 0.000000e+00 0.000000e+00)
# pitchAxis   : (0.000000e+00 0.000000e+00 -1.000000e+00)
# yawAxis     : (0.000000e+00 1.000000e+00 0.000000e+00)
# magUInf     : 2.800000e+01
# lRef        : 1.000000e+00
# Aref        : 1.000000e+00
# CofR        : (0.000000e+00 0.000000e+00 0.000000e+00)
#
# Time        	Cd            	Cd(f)         	Cd(r)         	Cl            	Cl(f)         	Cl(r)         	CmPitch       	CmRoll        	CmYaw         	Cs            	Cs(f)         	Cs(r)         
50            	1.385009e-01	4.227598e+00	-4.089097e+00	-3.017051e-02	-8.249570e-02	5.232519e-02	-6.741044e-02	4.158348e+00	-5.697484e+00	1.977802e+00	-4.708583e+00	6.686384e+00
100           	1.112794e-01	1.920734e+00	-1.809455e+00	-1.727851e-02	-6.462220e-02	4.734369e-02	-5.598295e-02	1.865095e+00	-3.102593e+00	9.295117e-01	-2.637837e+00	3.567348e+00
150           	9.637934e-02	1.058175e+00	-9.617958e-01	-4.821257e-03	-5.654903e-02	5.172777e-02	-5.413840e-02	1.009986e+00	-1.990629e+00	4.992728e-01	-1.740993e+00	2.240266e+00
200           	8.719526e-02	6.331313e-01	-5.459360e-01	1.695408e-03	-5.270218e-02	5.439759e-02	-5.354988e-02	5.895336e-01	-1.424845e+00	2.809024e-01	-1.284394e+00	1.565296e+00
250           	8.465087e-02	4.127161e-01	-3.280652e-01	6.073441e-03	-5.022843e-02	5.630187e-02	-5.326515e-02	3.703906e-01	-1.131678e+00	1.599709e-01	-1.051692e+00	1.211663e+00
300           	8.692841e-02	3.078703e-01	-2.209419e-01	7.270431e-03	-4.955765e-02	5.682808e-02	-5.319287e-02	2.644061e-01	-1.000512e+00	9.911401e-02	-9.509549e-01	1.050069e+00
350           	9.056719e-02	2.666048e-01	-1.760376e-01	7.520673e-03	-4.942061e-02	5.694129e-02	-5.318095e-02	2.213212e-01	-9.581570e-01	7.275467e-02	-9.217796e-01	9.945343e-01
400           	9.172834e-02	2.427862e-01	-1.510579e-01	7.351746e-03	-4.948032e-02	5.683207e-02	-5.315619e-02	1.969221e-01	-9.351332e-01	6.024074e-02	-9.050129e-01	9.652536e-01
