# Force and moment coefficients
# dragDir     : (1.000000e+00 0.000000e+00 0.000000e+00)
# sideDir     : (0.000000e+00 0.000000e+00 -1.000000e+00)
# liftDir     : (0.000000e+00 1.000000e+00 0.000000e+00)
# rollAxis    : (1.000000e+00 0.000000e+00 0.000000e+00)
# pitchAxis   : (0.000000e+00 0.000000e+00 -1.000000e+00)
# yawAxis     : (0.000000e+00 1.000000e+00 0.000000e+00)
# magUInf     : 6.000000e+00
# lRef        : 1.000000e+00
# Aref        : 1.000000e+00
# CofR        : (0.000000e+00 0.000000e+00 0.000000e+00)
#
# Time        	Cd            	Cd(f)         	Cd(r)         	Cl            	Cl(f)         	Cl(r)         	CmPitch       	CmRoll        	CmYaw         	Cs            	Cs(f)         	Cs(r)         
50            	3.815084e+00	9.569629e+01	-9.188120e+01	-5.229870e-01	-1.721903e+00	1.198916e+00	-1.460410e+00	9.378875e+01	-1.296102e+02	4.440429e+01	-1.074081e+02	1.518124e+02
100           	2.994243e+00	4.375920e+01	-4.076496e+01	-2.866286e-01	-1.334488e+00	1.047859e+00	-1.191174e+00	4.226208e+01	-7.080812e+01	2.070297e+01	-6.045663e+01	8.115961e+01
150           	2.633558e+00	2.569074e+01	-2.305718e+01	-3.288145e-02	-1.180951e+00	1.148069e+00	-1.164510e+00	2.437396e+01	-4.770529e+01	1.195135e+01	-4.172961e+01	5.368097e+01
200           	2.424491e+00	1.653668e+01	-1.411219e+01	3.964652e-02	-1.134303e+00	1.173950e+00	-1.154126e+00	1.532444e+01	-3.586889e+01	7.346428e+00	-3.219568e+01	3.954211e+01
250           	2.327699e+00	1.147979e+01	-9.152088e+00	-1.237766e-02	-1.155968e+00	1.143590e+00	-1.149779e+00	1.031594e+01	-2.964209e+01	4.765350e+00	-2.725942e+01	3.202477e+01
300           	2.269823e+00	8.542631e+00	-6.272807e+00	-1.468838e-01	-1.217196e+00	1.070312e+00	-1.143754e+00	7.407719e+00	-2.624387e+01	3.395400e+00	-2.454617e+01	2.794157e+01
350           	2.197508e+00	7.347983e+00	-5.150475e+00	-2.060365e-01	-1.243912e+00	1.037875e+00	-1.140894e+00	6.249229e+00	-2.465919e+01	2.965867e+00	-2.317626e+01	2.614213e+01
400           	2.147870e+00	6.789343e+00	-4.641473e+00	-2.297563e-01	-1.253677e+00	1.023921e+00	-1.138799e+00	5.715408e+00	-2.395588e+01	2.823903e+00	-2.254393e+01	2.536783e+01
