# Force and moment coefficients
# dragDir     : (1.000000e+00 0.000000e+00 0.000000e+00)
# sideDir     : (0.000000e+00 0.000000e+00 -1.000000e+00)
# liftDir     : (0.000000e+00 1.000000e+00 0.000000e+00)
# rollAxis    : (1.000000e+00 0.000000e+00 0.000000e+00)
# pitchAxis   : (0.000000e+00 0.000000e+00 -1.000000e+00)
# yawAxis     : (0.000000e+00 1.000000e+00 0.000000e+00)
# magUInf     : 1.000000e+01
# lRef        : 1.000000e+00
# Aref        : 1.000000e+00
# CofR        : (0.000000e+00 0.000000e+00 0.000000e+00)
#
# Time        	Cd            	Cd(f)         	Cd(r)         	Cl            	Cl(f)         	Cl(r)         	CmPitch       	CmRoll        	CmYaw         	Cs            	Cs(f)         	Cs(r)         
50            	1.373430e+00	3.445066e+01	-3.307723e+01	-1.882753e-01	-6.198851e-01	4.316098e-01	-5.257474e-01	3.376395e+01	-4.665969e+01	1.598555e+01	-3.866691e+01	5.465246e+01
100           	1.077927e+00	1.575331e+01	-1.467539e+01	-1.031863e-01	-4.804157e-01	3.772294e-01	-4.288225e-01	1.521435e+01	-2.549092e+01	7.453070e+00	-2.176439e+01	2.921746e+01
150           	9.480810e-01	9.248666e+00	-8.300585e+00	-1.183732e-02	-4.251423e-01	4.133050e-01	-4.192237e-01	8.774625e+00	-1.717390e+01	4.302487e+00	-1.502266e+01	1.932515e+01
200           	8.728168e-01	5.953206e+00	-5.080389e+00	1.427275e-02	-4.083491e-01	4.226219e-01	-4.154855e-01	5.516798e+00	-1.291280e+01	2.644714e+00	-1.159044e+01	1.423516e+01
250           	8.379718e-01	4.132723e+00	-3.294752e+00	-4.455959e-03	-4.161485e-01	4.116925e-01	-4.139205e-01	3.713737e+00	-1.067115e+01	1.715526e+00	-9.813391e+00	1.152892e+01
300           	8.171364e-01	3.075347e+00	-2.258211e+00	-5.287816e-02	-4.381906e-01	3.853124e-01	-4.117515e-01	2.666779e+00	-9.447794e+00	1.222344e+00	-8.836622e+00	1.005897e+01
350           	7.911027e-01	2.645274e+00	-1.854171e+00	-7.417314e-02	-4.478083e-01	3.736351e-01	-4.107217e-01	2.249722e+00	-8.877310e+00	1.067712e+00	-8.343454e+00	9.411166e+00
400           	7.732333e-01	2.444163e+00	-1.670930e+00	-8.271228e-02	-4.513238e-01	3.686116e-01	-4.099677e-01	2.057547e+00	-8.624117e+00	1.016605e+00	-8.115815e+00	9.132420e+00
