# Force and moment coefficients
# dragDir     : (1.000000e+00 0.000000e+00 0.000000e+00)
# sideDir     : (0.000000e+00 0.000000e+00 -1.000000e+00)
# liftDir     : (0.000000e+00 1.000000e+00 0.000000e+00)
# rollAxis    : (1.000000e+00 0.000000e+00 0.000000e+00)
# pitchAxis   : (0.000000e+00 0.000000e+00 -1.000000e+00)
# yawAxis     : (0.000000e+00 1.000000e+00 0.000000e+00)
# magUInf     : 2.000000e+01
# lRef        : 1.000000e+00
# Aref        : 1.000000e+00
# CofR        : (0.000000e+00 0.000000e+00 0.000000e+00)
#
# Time        	Cd            	Cd(f)         	Cd(r)         	Cl            	Cl(f)         	Cl(r)         	CmPitch       	CmRoll        	CmYaw         	Cs            	Cs(f)         	Cs(r)         
50            	6.281880e-02	1.564197e-02	4.717683e-02	-5.696925e-06	5.141948e-04	-5.198917e-04	5.170433e-04	-1.576743e-02	-1.233910e+00	1.356899e+00	-5.554608e-01	1.912360e+00
100           	4.576759e-02	2.155110e-02	2.421649e-02	-2.118871e-06	3.343584e-05	-3.555471e-05	3.449527e-05	-1.332693e-03	-2.111012e-01	1.662465e-01	-1.279779e-01	2.942244e-01
150           	4.403984e-02	2.193180e-02	2.210805e-02	-1.687420e-07	1.874621e-06	-2.043363e-06	1.958992e-06	-8.812581e-05	-1.345198e-01	6.082385e-02	-1.041079e-01	1.649317e-01
200           	4.392008e-02	2.195579e-02	2.196429e-02	-9.704842e-09	6.639846e-07	-6.736894e-07	6.688370e-07	-4.249538e-06	-1.308287e-01	5.655440e-02	-1.025515e-01	1.591059e-01
250           	4.390961e-02	2.195457e-02	2.195504e-02	-6.678610e-10	7.517068e-07	-7.523746e-07	7.520407e-07	-2.362560e-07	-1.307175e-01	5.641147e-02	-1.025117e-01	1.589232e-01
300           	4.390830e-02	2.195383e-02	2.195447e-02	-5.043672e-10	7.887619e-07	-7.892663e-07	7.890141e-07	-3.186593e-07	-1.307150e-01	5.640820e-02	-1.025109e-01	1.589191e-01
350           	4.390816e-02	2.195375e-02	2.195441e-02	-4.772583e-10	7.968584e-07	-7.973356e-07	7.970970e-07	-3.254837e-07	-1.307148e-01	5.640800e-02	-1.025108e-01	1.589188e-01
400           	4.390814e-02	2.195374e-02	2.195439e-02	-4.737494e-10	7.986717e-07	-7.991455e-07	7.989086e-07	-3.249088e-07	-1.307148e-01	5.640800e-02	-1.025108e-01	1.589188e-01
