# Force and moment coefficients
# dragDir     : (1.000000e+00 0.000000e+00 0.000000e+00)
# sideDir     : (0.000000e+00 0.000000e+00 -1.000000e+00)
# liftDir     : (0.000000e+00 1.000000e+00 0.000000e+00)
# rollAxis    : (1.000000e+00 0.000000e+00 0.000000e+00)
# pitchAxis   : (0.000000e+00 0.000000e+00 -1.000000e+00)
# yawAxis     : (0.000000e+00 1.000000e+00 0.000000e+00)
# magUInf     : 2.500000e+01
# lRef        : 1.000000e+00
# Aref        : 1.000000e+00
# CofR        : (0.000000e+00 0.000000e+00 0.000000e+00)
#
# Time        	Cd            	Cd(f)         	Cd(r)         	Cl            	Cl(f)         	Cl(r)         	CmPitch       	CmRoll        	CmYaw         	Cs            	Cs(f)         	Cs(r)         
50            	2.197489e-01	5.512106e+00	-5.292357e+00	-3.012405e-02	-9.918162e-02	6.905757e-02	-8.411959e-02	5.402232e+00	-7.465550e+00	2.557687e+00	-6.186706e+00	8.744393e+00
100           	1.724684e-01	2.520530e+00	-2.348062e+00	-1.650981e-02	-7.686651e-02	6.035670e-02	-6.861161e-02	2.434296e+00	-4.078548e+00	1.192491e+00	-3.482302e+00	4.674793e+00
150           	1.516930e-01	1.479787e+00	-1.328094e+00	-1.893971e-03	-6.802277e-02	6.612880e-02	-6.707578e-02	1.403940e+00	-2.747825e+00	6.883979e-01	-2.403626e+00	3.092024e+00
200           	1.396507e-01	9.525130e-01	-8.128623e-01	2.283640e-03	-6.533586e-02	6.761950e-02	-6.647768e-02	8.826877e-01	-2.066048e+00	4.231543e-01	-1.854471e+00	2.277625e+00
250           	1.340755e-01	6.612357e-01	-5.271603e-01	-7.129535e-04	-6.658375e-02	6.587080e-02	-6.622728e-02	5.941980e-01	-1.707385e+00	2.744841e-01	-1.570143e+00	1.844627e+00
300           	1.307418e-01	4.920555e-01	-3.613137e-01	-8.460505e-03	-7.011049e-02	6.164999e-02	-6.588024e-02	4.266846e-01	-1.511647e+00	1.955750e-01	-1.413860e+00	1.609435e+00
350           	1.265764e-01	4.232438e-01	-2.966674e-01	-1.186770e-02	-7.164932e-02	5.978162e-02	-6.571547e-02	3.599556e-01	-1.420370e+00	1.708339e-01	-1.334953e+00	1.505787e+00
400           	1.237173e-01	3.910662e-01	-2.673488e-01	-1.323397e-02	-7.221182e-02	5.897785e-02	-6.559483e-02	3.292075e-01	-1.379859e+00	1.626568e-01	-1.298530e+00	1.461187e+00
