# Force and moment coefficients
# dragDir     : (1.000000e+00 0.000000e+00 0.000000e+00)
# sideDir     : (0.000000e+00 0.000000e+00 -1.000000e+00)
# liftDir     : (0.000000e+00 1.000000e+00 0.000000e+00)
# rollAxis    : (1.000000e+00 0.000000e+00 0.000000e+00)
# pitchAxis   : (0.000000e+00 0.000000e+00 -1.000000e+00)
# yawAxis     : (0.000000e+00 1.000000e+00 0.000000e+00)
# magUInf     : 7.000000e+00
# lRef        : 1.000000e+00
# Aref        : 1.000000e+00
# CofR        : (0.000000e+00 0.000000e+00 0.000000e+00)
#
# Time        	Cd            	Cd(f)         	Cd(r)         	Cl            	Cl(f)         	Cl(r)         	CmPitch       	CmRoll        	CmYaw         	Cs            	Cs(f)         	Cs(r)         
50            	2.216014e+00	6.764157e+01	-6.542555e+01	-4.827282e-01	-1.319931e+00	8.372030e-01	-1.078567e+00	6.653356e+01	-9.115974e+01	3.164483e+01	-7.533732e+01	1.069822e+02
100           	1.780471e+00	3.073175e+01	-2.895128e+01	-2.764562e-01	-1.033955e+00	7.574990e-01	-8.957271e-01	2.984152e+01	-4.964148e+01	1.487219e+01	-4.220539e+01	5.707757e+01
150           	1.542069e+00	1.693080e+01	-1.538873e+01	-7.714012e-02	-9.047844e-01	8.276443e-01	-8.662143e-01	1.615977e+01	-3.185007e+01	7.988365e+00	-2.785589e+01	3.584425e+01
200           	1.395124e+00	1.013010e+01	-8.734976e+00	2.712652e-02	-8.432349e-01	8.703614e-01	-8.567981e-01	9.432538e+00	-2.279752e+01	4.494439e+00	-2.055030e+01	2.504474e+01
250           	1.354414e+00	6.603457e+00	-5.249043e+00	9.717505e-02	-8.036548e-01	9.008299e-01	-8.522424e-01	5.926250e+00	-1.810685e+01	2.559535e+00	-1.682708e+01	1.938661e+01
300           	1.390855e+00	4.925925e+00	-3.535070e+00	1.163269e-01	-7.929224e-01	9.092493e-01	-8.510859e-01	4.230498e+00	-1.600819e+01	1.585824e+00	-1.521528e+01	1.680110e+01
350           	1.449075e+00	4.265676e+00	-2.816601e+00	1.203308e-01	-7.907298e-01	9.110606e-01	-8.508952e-01	3.541139e+00	-1.533051e+01	1.164075e+00	-1.474847e+01	1.591255e+01
400           	1.467653e+00	3.884580e+00	-2.416926e+00	1.176279e-01	-7.916851e-01	9.093130e-01	-8.504991e-01	3.150753e+00	-1.496213e+01	9.638518e-01	-1.448021e+01	1.544406e+01
