# Force and moment coefficients
# dragDir     : (1.000000e+00 0.000000e+00 0.000000e+00)
# sideDir     : (0.000000e+00 0.000000e+00 -1.000000e+00)
# liftDir     : (0.000000e+00 1.000000e+00 0.000000e+00)
# rollAxis    : (1.000000e+00 0.000000e+00 0.000000e+00)
# pitchAxis   : (0.000000e+00 0.000000e+00 -1.000000e+00)
# yawAxis     : (0.000000e+00 1.000000e+00 0.000000e+00)
# magUInf     : 2.000000e+01
# lRef        : 1.000000e+00
# Aref        : 1.000000e+00
# CofR        : (0.000000e+00 0.000000e+00 0.000000e+00)
#
# Time        	Cd            	Cd(f)         	Cd(r)         	Cl            	Cl(f)         	Cl(r)         	CmPitch       	CmRoll        	CmYaw         	Cs            	Cs(f)         	Cs(r)         
50            	3.724582e-01	1.036787e+01	-9.995411e+00	-5.553108e-02	-1.817192e-01	1.261881e-01	-1.539536e-01	1.018164e+01	-1.352735e+01	4.639471e+00	-1.120761e+01	1.584708e+01
100           	2.654772e-01	4.491259e+00	-4.225781e+00	-3.776513e-02	-1.318688e-01	9.410368e-02	-1.129862e-01	4.358520e+00	-6.964782e+00	2.231340e+00	-5.849112e+00	8.080452e+00
150           	2.223230e-01	3.029744e+00	-2.807421e+00	-1.816996e-02	-1.147829e-01	9.661294e-02	-1.056979e-01	2.918582e+00	-5.071365e+00	1.663995e+00	-4.239367e+00	5.903362e+00
200           	1.868453e-01	2.898133e+00	-2.711287e+00	-5.355790e-03	-1.043084e-01	9.895259e-02	-1.016305e-01	2.804710e+00	-4.626226e+00	1.679276e+00	-3.786588e+00	5.465865e+00
250           	1.830323e-01	2.369983e+00	-2.186950e+00	7.623825e-03	-9.706922e-02	1.046930e-01	-1.008811e-01	2.278467e+00	-3.908917e+00	1.331749e+00	-3.243042e+00	4.574791e+00
300           	1.852148e-01	1.890701e+00	-1.705486e+00	6.158197e-03	-9.780601e-02	1.039642e-01	-1.008851e-01	1.798093e+00	-3.414977e+00	1.052911e+00	-2.888522e+00	3.941433e+00
350           	1.939091e-01	1.321005e+00	-1.127096e+00	6.302514e-03	-9.821518e-02	1.045177e-01	-1.013664e-01	1.224050e+00	-2.869850e+00	7.120432e-01	-2.513828e+00	3.225872e+00
400           	1.933105e-01	1.270652e+00	-1.077342e+00	5.862098e-03	-9.894851e-02	1.048106e-01	-1.018796e-01	1.173997e+00	-2.810769e+00	6.519743e-01	-2.484782e+00	3.136756e+00
