# Force and moment coefficients
# dragDir     : (1.000000e+00 0.000000e+00 0.000000e+00)
# sideDir     : (0.000000e+00 0.000000e+00 -1.000000e+00)
# liftDir     : (0.000000e+00 1.000000e+00 0.000000e+00)
# rollAxis    : (1.000000e+00 0.000000e+00 0.000000e+00)
# pitchAxis   : (0.000000e+00 0.000000e+00 -1.000000e+00)
# yawAxis     : (0.000000e+00 1.000000e+00 0.000000e+00)
# magUInf     : 2.500000e+01
# lRef        : 1.000000e+00
# Aref        : 1.000000e+00
# CofR        : (0.000000e+00 0.000000e+00 0.000000e+00)
#
# Time        	Cd            	Cd(f)         	Cd(r)         	Cl            	Cl(f)         	Cl(r)         	CmPitch       	CmRoll        	CmYaw         	Cs            	Cs(f)         	Cs(r)         
50            	1.737355e-01	5.303099e+00	-5.129363e+00	-3.784589e-02	-1.034826e-01	6.563672e-02	-8.455966e-02	5.216231e+00	-7.146923e+00	2.480955e+00	-5.906446e+00	8.387401e+00
100           	1.395889e-01	2.409369e+00	-2.269780e+00	-2.167416e-02	-8.106209e-02	5.938792e-02	-7.022501e-02	2.339575e+00	-3.891892e+00	1.165979e+00	-3.308902e+00	4.474882e+00
150           	1.208982e-01	1.327375e+00	-1.206477e+00	-6.047785e-03	-7.093510e-02	6.488731e-02	-6.791120e-02	1.266926e+00	-2.497046e+00	6.262878e-01	-2.183902e+00	2.810190e+00
200           	1.093777e-01	7.941998e-01	-6.848221e-01	2.126719e-03	-6.610961e-02	6.823633e-02	-6.717297e-02	7.395110e-01	-1.787326e+00	3.523640e-01	-1.611144e+00	1.963508e+00
250           	1.061860e-01	5.177110e-01	-4.115250e-01	7.618524e-03	-6.300654e-02	7.062506e-02	-6.681580e-02	4.646180e-01	-1.419577e+00	2.006676e-01	-1.319243e+00	1.519910e+00
300           	1.090430e-01	3.861925e-01	-2.771495e-01	9.120028e-03	-6.216512e-02	7.128515e-02	-6.672513e-02	3.316710e-01	-1.255042e+00	1.243286e-01	-1.192878e+00	1.317206e+00
350           	1.136075e-01	3.344290e-01	-2.208215e-01	9.433932e-03	-6.199322e-02	7.142715e-02	-6.671018e-02	2.776253e-01	-1.201912e+00	9.126346e-02	-1.156280e+00	1.247544e+00
400           	1.150640e-01	3.045510e-01	-1.894870e-01	9.222030e-03	-6.206811e-02	7.129014e-02	-6.667913e-02	2.470190e-01	-1.173031e+00	7.556598e-02	-1.135248e+00	1.210814e+00
