# Force and moment coefficients
# dragDir     : (1.000000e+00 0.000000e+00 0.000000e+00)
# sideDir     : (0.000000e+00 0.000000e+00 -1.000000e+00)
# liftDir     : (0.000000e+00 1.000000e+00 0.000000e+00)
# rollAxis    : (1.000000e+00 0.000000e+00 0.000000e+00)
# pitchAxis   : (0.000000e+00 0.000000e+00 -1.000000e+00)
# yawAxis     : (0.000000e+00 1.000000e+00 0.000000e+00)
# magUInf     : 1.100000e+01
# lRef        : 1.000000e+00
# Aref        : 1.000000e+00
# CofR        : (0.000000e+00 0.000000e+00 0.000000e+00)
#
# Time        	Cd            	Cd(f)         	Cd(r)         	Cl            	Cl(f)         	Cl(r)         	CmPitch       	CmRoll        	CmYaw         	Cs            	Cs(f)         	Cs(r)         
50            	1.231267e+00	3.427395e+01	-3.304268e+01	-1.835738e-01	-6.007246e-01	4.171508e-01	-5.089377e-01	3.365831e+01	-4.471850e+01	1.533709e+01	-3.704995e+01	5.238704e+01
100           	8.776106e-01	1.484714e+01	-1.396953e+01	-1.248434e-01	-4.359300e-01	3.110865e-01	-3.735083e-01	1.440833e+01	-2.302407e+01	7.376331e+00	-1.933591e+01	2.671224e+01
150           	7.349520e-01	1.001568e+01	-9.280730e+00	-6.006598e-02	-3.794476e-01	3.193816e-01	-3.494146e-01	9.648206e+00	-1.676484e+01	5.500811e+00	-1.401444e+01	1.951525e+01
200           	6.176705e-01	9.580604e+00	-8.962933e+00	-1.770509e-02	-3.448211e-01	3.271160e-01	-3.359685e-01	9.271768e+00	-1.529331e+01	5.551327e+00	-1.251765e+01	1.806897e+01
250           	6.050655e-01	7.834654e+00	-7.229588e+00	2.520273e-02	-3.208900e-01	3.460927e-01	-3.334913e-01	7.532121e+00	-1.292204e+01	4.402475e+00	-1.072080e+01	1.512328e+01
300           	6.122804e-01	6.250250e+00	-5.637969e+00	2.035768e-02	-3.233256e-01	3.436833e-01	-3.335045e-01	5.944110e+00	-1.128918e+01	3.480698e+00	-9.548832e+00	1.302953e+01
350           	6.410218e-01	4.366958e+00	-3.725936e+00	2.083476e-02	-3.246783e-01	3.455130e-01	-3.350956e-01	4.046447e+00	-9.487108e+00	2.353862e+00	-8.310177e+00	1.066404e+01
400           	6.390430e-01	4.200504e+00	-3.561461e+00	1.937883e-02	-3.271025e-01	3.464814e-01	-3.367919e-01	3.880982e+00	-9.291799e+00	2.155287e+00	-8.214155e+00	1.036944e+01
