# Force and moment coefficients
# dragDir     : (1.000000e+00 0.000000e+00 0.000000e+00)
# sideDir     : (0.000000e+00 0.000000e+00 -1.000000e+00)
# liftDir     : (0.000000e+00 1.000000e+00 0.000000e+00)
# rollAxis    : (1.000000e+00 0.000000e+00 0.000000e+00)
# pitchAxis   : (0.000000e+00 0.000000e+00 -1.000000e+00)
# yawAxis     : (0.000000e+00 1.000000e+00 0.000000e+00)
# magUInf     : 2.700000e+01
# lRef        : 1.000000e+00
# Aref        : 1.000000e+00
# CofR        : (0.000000e+00 0.000000e+00 0.000000e+00)
#
# Time        	Cd            	Cd(f)         	Cd(r)         	Cl            	Cl(f)         	Cl(r)         	CmPitch       	CmRoll        	CmYaw         	Cs            	Cs(f)         	Cs(r)         
50            	1.883992e-01	4.725743e+00	-4.537343e+00	-2.582652e-02	-8.503225e-02	5.920573e-02	-7.211899e-02	4.631543e+00	-6.400506e+00	2.192805e+00	-5.304103e+00	7.496908e+00
100           	1.478639e-01	2.160948e+00	-2.013084e+00	-1.415450e-02	-6.590064e-02	5.174614e-02	-5.882339e-02	2.087016e+00	-3.496697e+00	1.022369e+00	-2.985513e+00	4.007882e+00
150           	1.300523e-01	1.268678e+00	-1.138626e+00	-1.623775e-03	-5.831856e-02	5.669479e-02	-5.750667e-02	1.203652e+00	-2.355817e+00	5.901902e-01	-2.060722e+00	2.650912e+00
200           	1.197280e-01	8.166264e-01	-6.968984e-01	1.957853e-03	-5.601497e-02	5.797282e-02	-5.699390e-02	7.567624e-01	-1.771303e+00	3.627866e-01	-1.589910e+00	1.952697e+00
250           	1.149481e-01	5.669031e-01	-4.519550e-01	-6.112427e-04	-5.708484e-02	5.647359e-02	-5.677922e-02	5.094290e-01	-1.463807e+00	2.353259e-01	-1.346144e+00	1.581470e+00
300           	1.120900e-01	4.218583e-01	-3.097683e-01	-7.253520e-03	-6.010845e-02	5.285493e-02	-5.648169e-02	3.658133e-01	-1.295994e+00	1.676741e-01	-1.212157e+00	1.379831e+00
350           	1.085189e-01	3.628633e-01	-2.543445e-01	-1.017464e-02	-6.142774e-02	5.125310e-02	-5.634042e-02	3.086039e-01	-1.217738e+00	1.464626e-01	-1.144507e+00	1.290969e+00
400           	1.060677e-01	3.352762e-01	-2.292085e-01	-1.134599e-02	-6.190999e-02	5.056400e-02	-5.623700e-02	2.822424e-01	-1.183006e+00	1.394520e-01	-1.113280e+00	1.252732e+00
