# Force and moment coefficients
# dragDir     : (1.000000e+00 0.000000e+00 0.000000e+00)
# sideDir     : (0.000000e+00 0.000000e+00 -1.000000e+00)
# liftDir     : (0.000000e+00 1.000000e+00 0.000000e+00)
# rollAxis    : (1.000000e+00 0.000000e+00 0.000000e+00)
# pitchAxis   : (0.000000e+00 0.000000e+00 -1.000000e+00)
# yawAxis     : (0.000000e+00 1.000000e+00 0.000000e+00)
# magUInf     : 8.000000e+00
# lRef        : 1.000000e+00
# Aref        : 1.000000e+00
# CofR        : (0.000000e+00 0.000000e+00 0.000000e+00)
#
# Time        	Cd            	Cd(f)         	Cd(r)         	Cl            	Cl(f)         	Cl(r)         	CmPitch       	CmRoll        	CmYaw         	Cs            	Cs(f)         	Cs(r)         
50            	2.145985e+00	5.382916e+01	-5.168318e+01	-2.941802e-01	-9.685705e-01	6.743903e-01	-8.214804e-01	5.275617e+01	-7.290576e+01	2.497741e+01	-6.041705e+01	8.539447e+01
100           	1.684262e+00	2.461455e+01	-2.293029e+01	-1.612286e-01	-7.506495e-01	5.894209e-01	-6.700352e-01	2.377242e+01	-3.982957e+01	1.164542e+01	-3.400686e+01	4.565228e+01
150           	1.481377e+00	1.445104e+01	-1.296966e+01	-1.849581e-02	-6.642849e-01	6.457891e-01	-6.550370e-01	1.371035e+01	-2.683423e+01	6.722636e+00	-2.347291e+01	3.019554e+01
200           	1.363776e+00	9.301885e+00	-7.938108e+00	2.230117e-02	-6.380455e-01	6.603467e-01	-6.491961e-01	8.619997e+00	-2.017625e+01	4.132366e+00	-1.811007e+01	2.224243e+01
250           	1.309331e+00	6.457380e+00	-5.148049e+00	-6.962436e-03	-6.502320e-01	6.432695e-01	-6.467508e-01	5.802715e+00	-1.667368e+01	2.680509e+00	-1.533342e+01	1.801393e+01
300           	1.276776e+00	4.805230e+00	-3.528454e+00	-8.262212e-02	-6.846728e-01	6.020507e-01	-6.433617e-01	4.166842e+00	-1.476218e+01	1.909913e+00	-1.380722e+01	1.571713e+01
350           	1.236098e+00	4.133240e+00	-2.897142e+00	-1.158955e-01	-6.997004e-01	5.838049e-01	-6.417526e-01	3.515191e+00	-1.387080e+01	1.668300e+00	-1.303665e+01	1.470495e+01
400           	1.208177e+00	3.819005e+00	-2.610828e+00	-1.292379e-01	-7.051935e-01	5.759556e-01	-6.405745e-01	3.214917e+00	-1.347518e+01	1.588445e+00	-1.268096e+01	1.426941e+01
