# Force and moment coefficients
# dragDir     : (1.000000e+00 0.000000e+00 0.000000e+00)
# sideDir     : (0.000000e+00 0.000000e+00 -1.000000e+00)
# liftDir     : (0.000000e+00 1.000000e+00 0.000000e+00)
# rollAxis    : (1.000000e+00 0.000000e+00 0.000000e+00)
# pitchAxis   : (0.000000e+00 0.000000e+00 -1.000000e+00)
# yawAxis     : (0.000000e+00 1.000000e+00 0.000000e+00)
# magUInf     : 6.000000e+00
# lRef        : 1.000000e+00
# Aref        : 1.000000e+00
# CofR        : (0.000000e+00 0.000000e+00 0.000000e+00)
#
# Time        	Cd            	Cd(f)         	Cd(r)         	Cl            	Cl(f)         	Cl(r)         	CmPitch       	CmRoll        	CmYaw         	Cs            	Cs(f)         	Cs(r)         
50            	4.138424e+00	1.151985e+02	-1.110601e+02	-6.170120e-01	-2.019102e+00	1.402090e+00	-1.710596e+00	1.131293e+02	-1.503038e+02	5.154967e+01	-1.245290e+02	1.760787e+02
100           	2.949747e+00	4.990287e+01	-4.695313e+01	-4.196126e-01	-1.465209e+00	1.045596e+00	-1.255403e+00	4.842800e+01	-7.738646e+01	2.479267e+01	-6.499013e+01	8.978280e+01
150           	2.470255e+00	3.366382e+01	-3.119357e+01	-2.018884e-01	-1.275366e+00	1.073477e+00	-1.174421e+00	3.242869e+01	-5.634850e+01	1.848884e+01	-4.710408e+01	6.559292e+01
200           	2.076059e+00	3.220147e+01	-3.012541e+01	-5.950878e-02	-1.158982e+00	1.099473e+00	-1.129228e+00	3.116344e+01	-5.140252e+01	1.865863e+01	-4.207320e+01	6.073183e+01
250           	2.033692e+00	2.633314e+01	-2.429945e+01	8.470917e-02	-1.078547e+00	1.163256e+00	-1.120901e+00	2.531630e+01	-4.343241e+01	1.479721e+01	-3.603380e+01	5.083101e+01
300           	2.057943e+00	2.100778e+01	-1.894984e+01	6.842441e-02	-1.086733e+00	1.155158e+00	-1.120946e+00	1.997881e+01	-3.794419e+01	1.169901e+01	-3.209468e+01	4.379370e+01
350           	2.154545e+00	1.467783e+01	-1.252328e+01	7.002794e-02	-1.091280e+00	1.161308e+00	-1.126294e+00	1.360056e+01	-3.188722e+01	7.911592e+00	-2.793143e+01	3.584302e+01
400           	2.147895e+00	1.411836e+01	-1.197046e+01	6.513442e-02	-1.099428e+00	1.164562e+00	-1.131995e+00	1.304441e+01	-3.123077e+01	7.244159e+00	-2.760869e+01	3.485285e+01
