# Force and moment coefficients
# dragDir     : (1.000000e+00 0.000000e+00 0.000000e+00)
# sideDir     : (0.000000e+00 0.000000e+00 -1.000000e+00)
# liftDir     : (0.000000e+00 1.000000e+00 0.000000e+00)
# rollAxis    : (1.000000e+00 0.000000e+00 0.000000e+00)
# pitchAxis   : (0.000000e+00 0.000000e+00 -1.000000e+00)
# yawAxis     : (0.000000e+00 1.000000e+00 0.000000e+00)
# magUInf     : 2.900000e+01
# lRef        : 1.000000e+00
# Aref        : 1.000000e+00
# CofR        : (0.000000e+00 0.000000e+00 0.000000e+00)
#
# Time        	Cd            	Cd(f)         	Cd(r)         	Cl            	Cl(f)         	Cl(r)         	CmPitch       	CmRoll        	CmYaw         	Cs            	Cs(f)         	Cs(r)         
50            	1.633092e-01	4.096393e+00	-3.933084e+00	-2.238708e-02	-7.370810e-02	5.132102e-02	-6.251456e-02	4.014738e+00	-5.548120e+00	1.900778e+00	-4.597731e+00	6.498509e+00
100           	1.281721e-01	1.873164e+00	-1.744992e+00	-1.226948e-02	-5.712434e-02	4.485486e-02	-5.098960e-02	1.809078e+00	-3.031025e+00	8.862153e-01	-2.587918e+00	3.474133e+00
150           	1.127326e-01	1.099722e+00	-9.869899e-01	-1.407529e-03	-5.055200e-02	4.914447e-02	-4.984823e-02	1.043356e+00	-2.042081e+00	5.115918e-01	-1.786285e+00	2.297877e+00
200           	1.037832e-01	7.078723e-01	-6.040891e-01	1.697116e-03	-4.855519e-02	5.025231e-02	-4.940375e-02	6.559807e-01	-1.535410e+00	3.144726e-01	-1.378174e+00	1.692647e+00
250           	9.963993e-02	4.914059e-01	-3.917659e-01	-5.298406e-04	-4.948258e-02	4.895273e-02	-4.921766e-02	4.415859e-01	-1.268865e+00	2.039864e-01	-1.166872e+00	1.370858e+00
300           	9.716248e-02	3.656774e-01	-2.685149e-01	-6.287534e-03	-5.210352e-02	4.581598e-02	-4.895975e-02	3.170962e-01	-1.123400e+00	1.453441e-01	-1.050728e+00	1.196072e+00
350           	9.406691e-02	3.145391e-01	-2.204722e-01	-8.819636e-03	-5.324712e-02	4.442748e-02	-4.883730e-02	2.675056e-01	-1.055566e+00	1.269574e-01	-9.920872e-01	1.119045e+00
400           	9.194213e-02	2.906259e-01	-1.986837e-01	-9.834992e-03	-5.366514e-02	4.383015e-02	-4.874765e-02	2.446548e-01	-1.025460e+00	1.208805e-01	-9.650196e-01	1.085900e+00
