# Force and moment coefficients
# dragDir     : (1.000000e+00 0.000000e+00 0.000000e+00)
# sideDir     : (0.000000e+00 0.000000e+00 -1.000000e+00)
# liftDir     : (0.000000e+00 1.000000e+00 0.000000e+00)
# rollAxis    : (1.000000e+00 0.000000e+00 0.000000e+00)
# pitchAxis   : (0.000000e+00 0.000000e+00 -1.000000e+00)
# yawAxis     : (0.000000e+00 1.000000e+00 0.000000e+00)
# magUInf     : 1.900000e+01
# lRef        : 1.000000e+00
# Aref        : 1.000000e+00
# CofR        : (0.000000e+00 0.000000e+00 0.000000e+00)
#
# Time        	Cd            	Cd(f)         	Cd(r)         	Cl            	Cl(f)         	Cl(r)         	CmPitch       	CmRoll        	CmYaw         	Cs            	Cs(f)         	Cs(r)         
50            	4.126960e-01	1.148794e+01	-1.107525e+01	-6.153028e-02	-2.013509e-01	1.398206e-01	-1.705858e-01	1.128160e+01	-1.498875e+01	5.140688e+00	-1.241840e+01	1.755909e+01
100           	2.941576e-01	4.976464e+00	-4.682306e+00	-4.184502e-02	-1.461150e-01	1.042700e-01	-1.251925e-01	4.829385e+00	-7.717210e+00	2.472399e+00	-6.481010e+00	8.953409e+00
150           	2.463412e-01	3.357057e+00	-3.110716e+00	-2.013292e-02	-1.271833e-01	1.070504e-01	-1.171168e-01	3.233886e+00	-5.619241e+00	1.843762e+00	-4.697360e+00	6.541122e+00
200           	2.070308e-01	3.211227e+00	-3.004196e+00	-5.934393e-03	-1.155771e-01	1.096428e-01	-1.126100e-01	3.107712e+00	-5.126013e+00	1.860694e+00	-4.195666e+00	6.056360e+00
250           	2.028059e-01	2.626020e+00	-2.423214e+00	8.447452e-03	-1.075559e-01	1.160034e-01	-1.117796e-01	2.524617e+00	-4.331210e+00	1.475622e+00	-3.593399e+00	5.069020e+00
300           	2.052242e-01	2.094959e+00	-1.889735e+00	6.823487e-03	-1.083723e-01	1.151958e-01	-1.117840e-01	1.992347e+00	-3.783908e+00	1.166661e+00	-3.200578e+00	4.367239e+00
350           	2.148577e-01	1.463717e+00	-1.248859e+00	6.983395e-03	-1.088257e-01	1.158091e-01	-1.123174e-01	1.356288e+00	-3.179889e+00	7.889676e-01	-2.785405e+00	3.574373e+00
400           	2.141945e-01	1.407925e+00	-1.193731e+00	6.495399e-03	-1.096382e-01	1.161336e-01	-1.128859e-01	1.300828e+00	-3.114426e+00	7.224092e-01	-2.753221e+00	3.475630e+00
