# Force and moment coefficients
# dragDir     : (1.000000e+00 0.000000e+00 0.000000e+00)
# sideDir     : (0.000000e+00 0.000000e+00 -1.000000e+00)
# liftDir     : (0.000000e+00 1.000000e+00 0.000000e+00)
# rollAxis    : (1.000000e+00 0.000000e+00 0.000000e+00)
# pitchAxis   : (0.000000e+00 0.000000e+00 -1.000000e+00)
# yawAxis     : (0.000000e+00 1.000000e+00 0.000000e+00)
# magUInf     : 1.300000e+01
# lRef        : 1.000000e+00
# Aref        : 1.000000e+00
# CofR        : (0.000000e+00 0.000000e+00 0.000000e+00)
#
# Time        	Cd            	Cd(f)         	Cd(r)         	Cl            	Cl(f)         	Cl(r)         	CmPitch       	CmRoll        	CmYaw         	Cs            	Cs(f)         	Cs(r)         
50            	8.126807e-01	2.038501e+01	-1.957233e+01	-1.114055e-01	-3.667959e-01	2.553904e-01	-3.110932e-01	1.997867e+01	-2.760928e+01	9.458903e+00	-2.287983e+01	3.233873e+01
100           	6.378269e-01	9.321487e+00	-8.683660e+00	-6.105699e-02	-2.842696e-01	2.232127e-01	-2.537411e-01	9.002574e+00	-1.508339e+01	4.410101e+00	-1.287834e+01	1.728844e+01
150           	5.609947e-01	5.472583e+00	-4.911589e+00	-7.004332e-03	-2.515635e-01	2.445592e-01	-2.480613e-01	5.192086e+00	-1.016207e+01	2.545850e+00	-8.889148e+00	1.143500e+01
200           	5.164597e-01	3.522607e+00	-3.006148e+00	8.445413e-03	-2.416267e-01	2.500721e-01	-2.458494e-01	3.264377e+00	-7.640711e+00	1.564920e+00	-6.858251e+00	8.423170e+00
250           	4.958413e-01	2.445398e+00	-1.949557e+00	-2.636662e-03	-2.462417e-01	2.436050e-01	-2.449234e-01	2.197478e+00	-6.314292e+00	1.015104e+00	-5.806740e+00	6.821844e+00
300           	4.835127e-01	1.819732e+00	-1.336219e+00	-3.128885e-02	-2.592844e-01	2.279955e-01	-2.436399e-01	1.577976e+00	-5.590411e+00	7.232805e-01	-5.228770e+00	5.952051e+00
350           	4.681081e-01	1.565251e+00	-1.097143e+00	-4.388943e-02	-2.649753e-01	2.210859e-01	-2.430306e-01	1.331197e+00	-5.252846e+00	6.317823e-01	-4.936955e+00	5.568737e+00
400           	4.575345e-01	1.446251e+00	-9.887161e-01	-4.894218e-02	-2.670555e-01	2.181134e-01	-2.425844e-01	1.217483e+00	-5.103028e+00	6.015415e-01	-4.802257e+00	5.403799e+00
