# Force and moment coefficients
# dragDir     : (1.000000e+00 0.000000e+00 0.000000e+00)
# sideDir     : (0.000000e+00 0.000000e+00 -1.000000e+00)
# liftDir     : (0.000000e+00 1.000000e+00 0.000000e+00)
# rollAxis    : (1.000000e+00 0.000000e+00 0.000000e+00)
# pitchAxis   : (0.000000e+00 0.000000e+00 -1.000000e+00)
# yawAxis     : (0.000000e+00 1.000000e+00 0.000000e+00)
# magUInf     : 9.000000e+00
# lRef        : 1.000000e+00
# Aref        : 1.000000e+00
# CofR        : (0.000000e+00 0.000000e+00 0.000000e+00)
#
# Time        	Cd            	Cd(f)         	Cd(r)         	Cl            	Cl(f)         	Cl(r)         	CmPitch       	CmRoll        	CmYaw         	Cs            	Cs(f)         	Cs(r)         
50            	1.340552e+00	4.091897e+01	-3.957842e+01	-2.920208e-01	-7.984769e-01	5.064561e-01	-6.524665e-01	4.024870e+01	-5.514601e+01	1.914317e+01	-4.557443e+01	6.471760e+01
100           	1.077075e+00	1.859081e+01	-1.751374e+01	-1.672389e-01	-6.254791e-01	4.582402e-01	-5.418596e-01	1.805228e+01	-3.003003e+01	8.996755e+00	-2.553165e+01	3.452841e+01
150           	9.328568e-01	1.024209e+01	-9.309234e+00	-4.666501e-02	-5.473387e-01	5.006737e-01	-5.240062e-01	9.775662e+00	-1.926733e+01	4.832468e+00	-1.685109e+01	2.168356e+01
200           	8.439640e-01	6.128085e+00	-5.284121e+00	1.640987e-02	-5.101051e-01	5.265149e-01	-5.183100e-01	5.706103e+00	-1.379109e+01	2.718858e+00	-1.243166e+01	1.515052e+01
250           	8.193368e-01	3.994684e+00	-3.175347e+00	5.878491e-02	-4.861616e-01	5.449465e-01	-5.155540e-01	3.585015e+00	-1.095352e+01	1.548361e+00	-1.017934e+01	1.172770e+01
300           	8.413812e-01	2.979881e+00	-2.138499e+00	7.037059e-02	-4.796691e-01	5.500397e-01	-5.148544e-01	2.559190e+00	-9.683967e+00	9.593257e-01	-9.204304e+00	1.016363e+01
350           	8.766010e-01	2.580471e+00	-1.703870e+00	7.279268e-02	-4.783427e-01	5.511354e-01	-5.147391e-01	2.142170e+00	-9.274013e+00	7.041934e-01	-8.921916e+00	9.626110e+00
400           	8.878398e-01	2.349931e+00	-1.462091e+00	7.115764e-02	-4.789206e-01	5.500783e-01	-5.144994e-01	1.906011e+00	-9.051166e+00	5.830709e-01	-8.759631e+00	9.342702e+00
