# Force and moment coefficients
# dragDir     : (1.000000e+00 0.000000e+00 0.000000e+00)
# sideDir     : (0.000000e+00 0.000000e+00 -1.000000e+00)
# liftDir     : (0.000000e+00 1.000000e+00 0.000000e+00)
# rollAxis    : (1.000000e+00 0.000000e+00 0.000000e+00)
# pitchAxis   : (0.000000e+00 0.000000e+00 -1.000000e+00)
# yawAxis     : (0.000000e+00 1.000000e+00 0.000000e+00)
# magUInf     : 2.400000e+01
# lRef        : 1.000000e+00
# Aref        : 1.000000e+00
# CofR        : (0.000000e+00 0.000000e+00 0.000000e+00)
#
# Time        	Cd            	Cd(f)         	Cd(r)         	Cl            	Cl(f)         	Cl(r)         	CmPitch       	CmRoll        	CmYaw         	Cs            	Cs(f)         	Cs(r)         
50            	2.384428e-01	5.981018e+00	-5.742575e+00	-3.268669e-02	-1.076189e-01	7.493226e-02	-9.127560e-02	5.861797e+00	-8.100640e+00	2.775268e+00	-6.713006e+00	9.488274e+00
100           	1.871402e-01	2.734950e+00	-2.547810e+00	-1.791429e-02	-8.340550e-02	6.549121e-02	-7.444836e-02	2.641380e+00	-4.425508e+00	1.293936e+00	-3.778540e+00	5.072475e+00
150           	1.645974e-01	1.605671e+00	-1.441074e+00	-2.055090e-03	-7.380943e-02	7.175434e-02	-7.278188e-02	1.523372e+00	-2.981581e+00	7.469595e-01	-2.608101e+00	3.355060e+00
200           	1.515307e-01	1.033543e+00	-8.820121e-01	2.477908e-03	-7.089395e-02	7.337186e-02	-7.213290e-02	9.577774e-01	-2.241806e+00	4.591518e-01	-2.012230e+00	2.471382e+00
250           	1.454812e-01	7.174867e-01	-5.720055e-01	-7.736040e-04	-7.224800e-02	7.147439e-02	-7.186119e-02	6.447461e-01	-1.852631e+00	2.978344e-01	-1.703714e+00	2.001548e+00
300           	1.418640e-01	5.339144e-01	-3.920505e-01	-9.180236e-03	-7.607475e-02	6.689452e-02	-7.148464e-02	4.629824e-01	-1.640242e+00	2.122125e-01	-1.534136e+00	1.746348e+00
350           	1.373442e-01	4.592489e-01	-3.219047e-01	-1.287728e-02	-7.774449e-02	6.486721e-02	-7.130585e-02	3.905768e-01	-1.541200e+00	1.853667e-01	-1.448516e+00	1.633883e+00
400           	1.342419e-01	4.243339e-01	-2.900920e-01	-1.435977e-02	-7.835483e-02	6.399506e-02	-7.117495e-02	3.572130e-01	-1.497243e+00	1.764939e-01	-1.408996e+00	1.585490e+00
