# Force and moment coefficients
# dragDir     : (1.000000e+00 0.000000e+00 0.000000e+00)
# sideDir     : (0.000000e+00 0.000000e+00 -1.000000e+00)
# liftDir     : (0.000000e+00 1.000000e+00 0.000000e+00)
# rollAxis    : (1.000000e+00 0.000000e+00 0.000000e+00)
# pitchAxis   : (0.000000e+00 0.000000e+00 -1.000000e+00)
# yawAxis     : (0.000000e+00 1.000000e+00 0.000000e+00)
# magUInf     : 1.000000e+01
# lRef        : 1.000000e+00
# Aref        : 1.000000e+00
# CofR        : (0.000000e+00 0.000000e+00 0.000000e+00)
#
# Time        	Cd            	Cd(f)         	Cd(r)         	Cl            	Cl(f)         	Cl(r)         	CmPitch       	CmRoll        	CmYaw         	Cs            	Cs(f)         	Cs(r)         
50            	4.392314e+00	1.163999e+02	-1.120076e+02	-9.857558e-01	-1.813992e+00	8.282365e-01	-1.321114e+00	1.142038e+02	-1.569699e+02	5.348383e+01	-1.302280e+02	1.837118e+02
100           	3.267063e+00	4.411701e+01	-4.084995e+01	-2.022494e-01	-1.095550e+00	8.933009e-01	-9.944256e-01	4.248348e+01	-7.608919e+01	2.042003e+01	-6.587918e+01	8.629921e+01
150           	3.003594e+00	2.423278e+01	-2.122919e+01	-1.929478e-01	-1.076993e+00	8.840449e-01	-9.805188e-01	2.273099e+01	-5.227878e+01	1.070846e+01	-4.692455e+01	5.763301e+01
200           	2.871983e+00	1.580295e+01	-1.293097e+01	-3.356210e-01	-1.154928e+00	8.193066e-01	-9.871171e-01	1.436696e+01	-4.211906e+01	6.493133e+00	-3.887249e+01	4.536563e+01
250           	2.776910e+00	1.280119e+01	-1.002428e+01	-4.199755e-01	-1.203162e+00	7.831868e-01	-9.931746e-01	1.141273e+01	-3.830701e+01	5.295859e+00	-3.565908e+01	4.095494e+01
300           	2.634776e+00	1.191524e+01	-9.280462e+00	-5.050111e-01	-1.246640e+00	7.416285e-01	-9.941340e-01	1.059785e+01	-3.755244e+01	5.332813e+00	-3.488603e+01	4.021885e+01
350           	2.405844e+00	1.454560e+01	-1.213976e+01	-6.185978e-01	-1.309626e+00	6.910278e-01	-1.000327e+00	1.334268e+01	-4.121239e+01	7.482160e+00	-3.747131e+01	4.495347e+01
400           	2.226052e+00	2.085573e+01	-1.862968e+01	-1.271171e+00	-1.665228e+00	3.940566e-01	-1.029642e+00	1.974271e+01	-5.186835e+01	1.237283e+01	-4.568194e+01	5.805477e+01
