# Force and moment coefficients
# dragDir     : (1.000000e+00 0.000000e+00 0.000000e+00)
# sideDir     : (0.000000e+00 0.000000e+00 -1.000000e+00)
# liftDir     : (0.000000e+00 1.000000e+00 0.000000e+00)
# rollAxis    : (1.000000e+00 0.000000e+00 0.000000e+00)
# pitchAxis   : (0.000000e+00 0.000000e+00 -1.000000e+00)
# yawAxis     : (0.000000e+00 1.000000e+00 0.000000e+00)
# magUInf     : 2.300000e+01
# lRef        : 1.000000e+00
# Aref        : 1.000000e+00
# CofR        : (0.000000e+00 0.000000e+00 0.000000e+00)
#
# Time        	Cd            	Cd(f)         	Cd(r)         	Cl            	Cl(f)         	Cl(r)         	CmPitch       	CmRoll        	CmYaw         	Cs            	Cs(f)         	Cs(r)         
50            	2.816319e-01	7.839598e+00	-7.557967e+00	-4.198948e-02	-1.374058e-01	9.541634e-02	-1.164111e-01	7.698783e+00	-1.022862e+01	3.508106e+00	-8.474564e+00	1.198267e+01
100           	2.007389e-01	3.396037e+00	-3.195298e+00	-2.855587e-02	-9.971177e-02	7.115590e-02	-8.543383e-02	3.295667e+00	-5.266376e+00	1.687214e+00	-4.422769e+00	6.109982e+00
150           	1.681081e-01	2.290922e+00	-2.122814e+00	-1.373910e-02	-8.679236e-02	7.305327e-02	-7.992281e-02	2.206868e+00	-3.834680e+00	1.258219e+00	-3.205571e+00	4.463790e+00
200           	1.412819e-01	2.191405e+00	-2.050123e+00	-4.049747e-03	-7.887212e-02	7.482237e-02	-7.684724e-02	2.120764e+00	-3.498092e+00	1.269774e+00	-2.863205e+00	4.132979e+00
250           	1.383987e-01	1.792047e+00	-1.653649e+00	5.764707e-03	-7.339827e-02	7.916298e-02	-7.628063e-02	1.722848e+00	-2.955703e+00	1.006993e+00	-2.452206e+00	3.459199e+00
300           	1.400490e-01	1.429641e+00	-1.289592e+00	4.656482e-03	-7.395539e-02	7.861187e-02	-7.628363e-02	1.359617e+00	-2.582213e+00	7.961522e-01	-2.184137e+00	2.980289e+00
350           	1.466231e-01	9.988693e-01	-8.522462e-01	4.765606e-03	-7.426478e-02	7.903039e-02	-7.664759e-02	9.255577e-01	-2.170019e+00	5.384070e-01	-1.900815e+00	2.439222e+00
400           	1.461705e-01	9.607957e-01	-8.146252e-01	4.432588e-03	-7.481929e-02	7.925188e-02	-7.703559e-02	8.877104e-01	-2.125345e+00	4.929863e-01	-1.878852e+00	2.371838e+00
