# Force and moment coefficients
# dragDir     : (1.000000e+00 0.000000e+00 0.000000e+00)
# sideDir     : (0.000000e+00 0.000000e+00 -1.000000e+00)
# liftDir     : (0.000000e+00 1.000000e+00 0.000000e+00)
# rollAxis    : (1.000000e+00 0.000000e+00 0.000000e+00)
# pitchAxis   : (0.000000e+00 0.000000e+00 -1.000000e+00)
# yawAxis     : (0.000000e+00 1.000000e+00 0.000000e+00)
# magUInf     : 2.000000e+01
# lRef        : 1.000000e+00
# Aref        : 1.000000e+00
# CofR        : (0.000000e+00 0.000000e+00 0.000000e+00)
#
# Time        	Cd            	Cd(f)         	Cd(r)         	Cl            	Cl(f)         	Cl(r)         	CmPitch       	CmRoll        	CmYaw         	Cs            	Cs(f)         	Cs(r)         
50            	5.877139e-02	7.726761e+00	-7.667990e+00	-3.972265e-03	-1.295486e-01	1.255764e-01	-1.275625e-01	7.697375e+00	-9.725275e+00	3.511917e+00	-7.969317e+00	1.148123e+01
100           	4.496760e-02	3.211180e+00	-3.166212e+00	-1.728432e-03	-1.065438e-01	1.048154e-01	-1.056796e-01	3.188696e+00	-4.278177e+00	1.580636e+00	-3.487859e+00	5.068495e+00
150           	4.187806e-02	1.781522e+00	-1.739644e+00	-1.051022e-03	-1.030995e-01	1.020485e-01	-1.025740e-01	1.760583e+00	-2.422743e+00	9.311356e-01	-1.957175e+00	2.888311e+00
200           	4.069816e-02	1.086935e+00	-1.046237e+00	-6.280189e-04	-1.021946e-01	1.015665e-01	-1.018805e-01	1.066586e+00	-1.491130e+00	5.753239e-01	-1.203468e+00	1.778792e+00
250           	4.024600e-02	6.968585e-01	-6.566125e-01	-3.732591e-04	-1.017735e-01	1.014002e-01	-1.015868e-01	6.767355e-01	-9.636266e-01	3.624484e-01	-7.824024e-01	1.144851e+00
300           	4.010269e-02	4.674475e-01	-4.273448e-01	-2.200960e-04	-1.014794e-01	1.012593e-01	-1.013693e-01	4.473962e-01	-6.523719e-01	2.332617e-01	-5.357410e-01	7.690027e-01
350           	4.006378e-02	3.311456e-01	-2.910818e-01	-1.276277e-04	-1.012778e-01	1.011502e-01	-1.012140e-01	3.111137e-01	-4.668563e-01	1.555063e-01	-3.891032e-01	5.446095e-01
400           	4.004829e-02	2.497709e-01	-2.097226e-01	-7.224213e-05	-1.011462e-01	1.010740e-01	-1.011101e-01	2.297468e-01	-3.558768e-01	1.091151e-01	-3.013193e-01	4.104344e-01
