# Force and moment coefficients
# dragDir     : (1.000000e+00 0.000000e+00 0.000000e+00)
# sideDir     : (0.000000e+00 0.000000e+00 -1.000000e+00)
# liftDir     : (0.000000e+00 1.000000e+00 0.000000e+00)
# rollAxis    : (1.000000e+00 0.000000e+00 0.000000e+00)
# pitchAxis   : (0.000000e+00 0.000000e+00 -1.000000e+00)
# yawAxis     : (0.000000e+00 1.000000e+00 0.000000e+00)
# magUInf     : 2.800000e+01
# lRef        : 1.000000e+00
# Aref        : 1.000000e+00
# CofR        : (0.000000e+00 0.000000e+00 0.000000e+00)
#
# Time        	Cd            	Cd(f)         	Cd(r)         	Cl            	Cl(f)         	Cl(r)         	CmPitch       	CmRoll        	CmYaw         	Cs            	Cs(f)         	Cs(r)         
50            	1.751824e-01	4.394217e+00	-4.219035e+00	-2.401471e-02	-7.906698e-02	5.505227e-02	-6.705962e-02	4.306626e+00	-5.951491e+00	2.038973e+00	-4.932004e+00	6.970977e+00
100           	1.374908e-01	2.009351e+00	-1.871860e+00	-1.316152e-02	-6.127751e-02	4.811599e-02	-5.469675e-02	1.940606e+00	-3.251393e+00	9.506467e-01	-2.776070e+00	3.726717e+00
150           	1.209287e-01	1.179677e+00	-1.058748e+00	-1.509862e-03	-5.422734e-02	5.271747e-02	-5.347241e-02	1.119212e+00	-2.190549e+00	5.487866e-01	-1.916156e+00	2.464942e+00
200           	1.113287e-01	7.593375e-01	-6.480089e-01	1.820504e-03	-5.208535e-02	5.390585e-02	-5.299560e-02	7.036732e-01	-1.647041e+00	3.373360e-01	-1.478373e+00	1.815709e+00
250           	1.068842e-01	5.271331e-01	-4.202489e-01	-5.683621e-04	-5.308016e-02	5.251180e-02	-5.279598e-02	4.736910e-01	-1.361117e+00	2.188171e-01	-1.251708e+00	1.470525e+00
300           	1.042266e-01	3.922637e-01	-2.880371e-01	-6.744663e-03	-5.589166e-02	4.914699e-02	-5.251933e-02	3.401504e-01	-1.205076e+00	1.559112e-01	-1.127120e+00	1.283031e+00
350           	1.009060e-01	3.374074e-01	-2.365014e-01	-9.460860e-03	-5.711840e-02	4.765754e-02	-5.238797e-02	2.869544e-01	-1.132310e+00	1.361878e-01	-1.064216e+00	1.200404e+00
400           	9.862669e-02	3.117555e-01	-2.131288e-01	-1.055004e-02	-5.756682e-02	4.701678e-02	-5.229180e-02	2.624422e-01	-1.100015e+00	1.296690e-01	-1.035180e+00	1.164849e+00
