# Force and moment coefficients
# dragDir     : (1.000000e+00 0.000000e+00 0.000000e+00)
# sideDir     : (0.000000e+00 0.000000e+00 -1.000000e+00)
# liftDir     : (0.000000e+00 1.000000e+00 0.000000e+00)
# rollAxis    : (1.000000e+00 0.000000e+00 0.000000e+00)
# pitchAxis   : (0.000000e+00 0.000000e+00 -1.000000e+00)
# yawAxis     : (0.000000e+00 1.000000e+00 0.000000e+00)
# magUInf     : 1.500000e+01
# lRef        : 1.000000e+00
# Aref        : 1.000000e+00
# CofR        : (0.000000e+00 0.000000e+00 0.000000e+00)
#
# Time        	Cd            	Cd(f)         	Cd(r)         	Cl            	Cl(f)         	Cl(r)         	CmPitch       	CmRoll        	CmYaw         	Cs            	Cs(f)         	Cs(r)         
50            	6.104135e-01	1.531141e+01	-1.470099e+01	-8.367791e-02	-2.755045e-01	1.918266e-01	-2.336655e-01	1.500620e+01	-2.073764e+01	7.104687e+00	-1.718529e+01	2.428998e+01
100           	4.790789e-01	7.001473e+00	-6.522394e+00	-4.586058e-02	-2.135181e-01	1.676575e-01	-1.905878e-01	6.761933e+00	-1.132930e+01	3.312476e+00	-9.673061e+00	1.298554e+01
150           	4.213694e-01	4.110518e+00	-3.689149e+00	-5.261032e-03	-1.889521e-01	1.836911e-01	-1.863216e-01	3.899833e+00	-7.632846e+00	1.912216e+00	-6.676738e+00	8.588954e+00
200           	3.879186e-01	2.645869e+00	-2.257951e+00	6.343443e-03	-1.814885e-01	1.878320e-01	-1.846602e-01	2.451910e+00	-5.739023e+00	1.175429e+00	-5.151308e+00	6.326737e+00
250           	3.724319e-01	1.836766e+00	-1.464334e+00	-1.980426e-03	-1.849549e-01	1.829744e-01	-1.839647e-01	1.650550e+00	-4.742735e+00	7.624560e-01	-4.361507e+00	5.123963e+00
300           	3.631718e-01	1.366821e+00	-1.003649e+00	-2.350140e-02	-1.947514e-01	1.712500e-01	-1.830007e-01	1.185235e+00	-4.199020e+00	5.432640e-01	-3.927388e+00	4.470652e+00
350           	3.516012e-01	1.175677e+00	-8.240760e-01	-3.296584e-02	-1.990259e-01	1.660600e-01	-1.825430e-01	9.998766e-01	-3.945471e+00	4.745387e-01	-3.708202e+00	4.182740e+00
400           	3.436592e-01	1.086295e+00	-7.426356e-01	-3.676101e-02	-2.005884e-01	1.638274e-01	-1.822079e-01	9.144653e-01	-3.832941e+00	4.518245e-01	-3.607029e+00	4.058853e+00
