# Force and moment coefficients
# dragDir     : (1.000000e+00 0.000000e+00 0.000000e+00)
# sideDir     : (0.000000e+00 0.000000e+00 -1.000000e+00)
# liftDir     : (0.000000e+00 1.000000e+00 0.000000e+00)
# rollAxis    : (1.000000e+00 0.000000e+00 0.000000e+00)
# pitchAxis   : (0.000000e+00 0.000000e+00 -1.000000e+00)
# yawAxis     : (0.000000e+00 1.000000e+00 0.000000e+00)
# magUInf     : 2.200000e+01
# lRef        : 1.000000e+00
# Aref        : 1.000000e+00
# CofR        : (0.000000e+00 0.000000e+00 0.000000e+00)
#
# Time        	Cd            	Cd(f)         	Cd(r)         	Cl            	Cl(f)         	Cl(r)         	CmPitch       	CmRoll        	CmYaw         	Cs            	Cs(f)         	Cs(r)         
50            	2.243486e-01	6.848010e+00	-6.623661e+00	-4.887124e-02	-1.336294e-01	8.475816e-02	-1.091938e-01	6.735836e+00	-9.228982e+00	3.203712e+00	-7.627125e+00	1.083084e+01
100           	1.802543e-01	3.111272e+00	-2.931018e+00	-2.798833e-02	-1.046773e-01	7.668895e-02	-9.068312e-02	3.021145e+00	-5.025687e+00	1.505655e+00	-4.272859e+00	5.778515e+00
150           	1.561186e-01	1.714069e+00	-1.557950e+00	-7.809640e-03	-9.160007e-02	8.379043e-02	-8.769525e-02	1.636010e+00	-3.224491e+00	8.087395e-01	-2.820121e+00	3.628860e+00
200           	1.412419e-01	1.025568e+00	-8.843261e-01	2.746280e-03	-8.536882e-02	8.811510e-02	-8.674196e-02	9.549470e-01	-2.308013e+00	4.550155e-01	-2.080506e+00	2.535521e+00
250           	1.371204e-01	6.685318e-01	-5.314114e-01	9.837970e-03	-8.136175e-02	9.119972e-02	-8.628073e-02	5.999716e-01	-1.833131e+00	2.591265e-01	-1.703568e+00	1.962694e+00
300           	1.408097e-01	4.986990e-01	-3.578893e-01	1.177690e-02	-8.027520e-02	9.205210e-02	-8.616365e-02	4.282942e-01	-1.620664e+00	1.605483e-01	-1.540390e+00	1.700938e+00
350           	1.467039e-01	4.318557e-01	-2.851518e-01	1.218225e-02	-8.005323e-02	9.223547e-02	-8.614435e-02	3.585037e-01	-1.552056e+00	1.178505e-01	-1.493131e+00	1.610981e+00
400           	1.485848e-01	3.932735e-01	-2.446888e-01	1.190861e-02	-8.014994e-02	9.205855e-02	-8.610425e-02	3.189812e-01	-1.514761e+00	9.758004e-02	-1.465971e+00	1.563551e+00
