# Force and moment coefficients
# dragDir     : (1.000000e+00 0.000000e+00 0.000000e+00)
# sideDir     : (0.000000e+00 0.000000e+00 -1.000000e+00)
# liftDir     : (0.000000e+00 1.000000e+00 0.000000e+00)
# rollAxis    : (1.000000e+00 0.000000e+00 0.000000e+00)
# pitchAxis   : (0.000000e+00 0.000000e+00 -1.000000e+00)
# yawAxis     : (0.000000e+00 1.000000e+00 0.000000e+00)
# magUInf     : 2.300000e+01
# lRef        : 1.000000e+00
# Aref        : 1.000000e+00
# CofR        : (0.000000e+00 0.000000e+00 0.000000e+00)
#
# Time        	Cd            	Cd(f)         	Cd(r)         	Cl            	Cl(f)         	Cl(r)         	CmPitch       	CmRoll        	CmYaw         	Cs            	Cs(f)         	Cs(r)         
50            	2.596277e-01	6.512413e+00	-6.252785e+00	-3.559080e-02	-1.171805e-01	8.158975e-02	-9.938515e-02	6.382599e+00	-8.820357e+00	3.021842e+00	-7.309435e+00	1.033128e+01
100           	2.037670e-01	2.977942e+00	-2.774175e+00	-1.950592e-02	-9.081582e-02	7.130990e-02	-8.106286e-02	2.876059e+00	-4.818700e+00	1.408898e+00	-4.114251e+00	5.523149e+00
150           	1.792214e-01	1.748330e+00	-1.569109e+00	-2.237679e-03	-8.036717e-02	7.812949e-02	-7.924833e-02	1.658719e+00	-3.246485e+00	8.133245e-01	-2.839822e+00	3.653147e+00
200           	1.649937e-01	1.125370e+00	-9.603761e-01	2.698062e-03	-7.719265e-02	7.989072e-02	-7.854169e-02	1.042873e+00	-2.440983e+00	4.999460e-01	-2.191010e+00	2.690956e+00
250           	1.584068e-01	7.812332e-01	-6.228264e-01	-8.423363e-04	-7.866701e-02	7.782467e-02	-7.824584e-02	7.020298e-01	-2.017231e+00	3.242960e-01	-1.855083e+00	2.179379e+00
300           	1.544681e-01	5.813511e-01	-4.268829e-01	-9.995871e-03	-8.283376e-02	7.283789e-02	-7.783582e-02	5.041170e-01	-1.785972e+00	2.310669e-01	-1.670439e+00	1.901506e+00
350           	1.495468e-01	5.000518e-01	-3.505049e-01	-1.402139e-02	-8.465184e-02	7.063046e-02	-7.764115e-02	4.252783e-01	-1.678130e+00	2.018359e-01	-1.577212e+00	1.779048e+00
400           	1.461689e-01	4.620347e-01	-3.158658e-01	-1.563559e-02	-8.531642e-02	6.968083e-02	-7.749862e-02	3.889502e-01	-1.630268e+00	1.921749e-01	-1.534180e+00	1.726355e+00
