# Force and moment coefficients
# dragDir     : (1.000000e+00 0.000000e+00 0.000000e+00)
# sideDir     : (0.000000e+00 0.000000e+00 -1.000000e+00)
# liftDir     : (0.000000e+00 1.000000e+00 0.000000e+00)
# rollAxis    : (1.000000e+00 0.000000e+00 0.000000e+00)
# pitchAxis   : (0.000000e+00 0.000000e+00 -1.000000e+00)
# yawAxis     : (0.000000e+00 1.000000e+00 0.000000e+00)
# magUInf     : 2.000000e+00
# lRef        : 1.000000e+00
# Aref        : 1.000000e+00
# CofR        : (0.000000e+00 0.000000e+00 0.000000e+00)
#
# Time        	Cd            	Cd(f)         	Cd(r)         	Cl            	Cl(f)         	Cl(r)         	CmPitch       	CmRoll        	CmYaw         	Cs            	Cs(f)         	Cs(r)         
50            	3.433576e+01	8.612666e+02	-8.269308e+02	-4.706883e+00	-1.549713e+01	1.079024e+01	-1.314369e+01	8.440987e+02	-1.166492e+03	3.996386e+02	-9.666728e+02	1.366311e+03
100           	2.694819e+01	3.938328e+02	-3.668846e+02	-2.579658e+00	-1.201039e+01	9.430735e+00	-1.072056e+01	3.803587e+02	-6.372731e+02	1.863268e+02	-5.441097e+02	7.304365e+02
150           	2.370203e+01	2.312166e+02	-2.075146e+02	-2.959330e-01	-1.062856e+01	1.033262e+01	-1.048059e+01	2.193656e+02	-4.293476e+02	1.075622e+02	-3.755665e+02	4.831287e+02
200           	2.182042e+01	1.488302e+02	-1.270097e+02	3.568187e-01	-1.020873e+01	1.056555e+01	-1.038714e+01	1.379199e+02	-3.228200e+02	6.611785e+01	-2.897611e+02	3.558790e+02
250           	2.094929e+01	1.033181e+02	-8.236879e+01	-1.113990e-01	-1.040371e+01	1.029231e+01	-1.034801e+01	9.284344e+01	-2.667788e+02	4.288815e+01	-2.453348e+02	2.882229e+02
300           	2.042841e+01	7.688368e+01	-5.645527e+01	-1.321954e+00	-1.095476e+01	9.632811e+00	-1.029379e+01	6.666947e+01	-2.361949e+02	3.055860e+01	-2.209156e+02	2.514742e+02
350           	1.977757e+01	6.613185e+01	-4.635428e+01	-1.854329e+00	-1.119521e+01	9.340878e+00	-1.026804e+01	5.624306e+01	-2.219327e+02	2.669280e+01	-2.085863e+02	2.352791e+02
400           	1.933083e+01	6.110409e+01	-4.177325e+01	-2.067807e+00	-1.128310e+01	9.215289e+00	-1.024919e+01	5.143867e+01	-2.156029e+02	2.541513e+01	-2.028954e+02	2.283105e+02
