# Force and moment coefficients
# dragDir     : (1.000000e+00 0.000000e+00 0.000000e+00)
# sideDir     : (0.000000e+00 0.000000e+00 -1.000000e+00)
# liftDir     : (0.000000e+00 1.000000e+00 0.000000e+00)
# rollAxis    : (1.000000e+00 0.000000e+00 0.000000e+00)
# pitchAxis   : (0.000000e+00 0.000000e+00 -1.000000e+00)
# yawAxis     : (0.000000e+00 1.000000e+00 0.000000e+00)
# magUInf     : 4.000000e+00
# lRef        : 1.000000e+00
# Aref        : 1.000000e+00
# CofR        : (0.000000e+00 0.000000e+00 0.000000e+00)
#
# Time        	Cd            	Cd(f)         	Cd(r)         	Cl            	Cl(f)         	Cl(r)         	CmPitch       	CmRoll        	CmYaw         	Cs            	Cs(f)         	Cs(r)         
50            	9.311455e+00	2.591967e+02	-2.498853e+02	-1.388277e+00	-4.542980e+00	3.154703e+00	-3.848841e+00	2.545410e+02	-3.381836e+02	1.159868e+02	-2.801903e+02	3.961770e+02
100           	6.636930e+00	1.122815e+02	-1.056445e+02	-9.441283e-01	-3.296720e+00	2.352592e+00	-2.824656e+00	1.089630e+02	-1.741195e+02	5.578350e+01	-1.462278e+02	2.020113e+02
150           	5.558074e+00	7.574360e+01	-7.018552e+01	-4.542490e-01	-2.869573e+00	2.415324e+00	-2.642448e+00	7.296456e+01	-1.267841e+02	4.159988e+01	-1.059842e+02	1.475841e+02
200           	4.671133e+00	7.245332e+01	-6.778218e+01	-1.338947e-01	-2.607709e+00	2.473815e+00	-2.540762e+00	7.011775e+01	-1.156557e+02	4.198191e+01	-9.466471e+01	1.366466e+02
250           	4.575808e+00	5.924957e+01	-5.467376e+01	1.905956e-01	-2.426730e+00	2.617326e+00	-2.522028e+00	5.696167e+01	-9.772291e+01	3.329372e+01	-8.107606e+01	1.143698e+02
300           	4.630371e+00	4.726751e+01	-4.263714e+01	1.539549e-01	-2.445150e+00	2.599105e+00	-2.522128e+00	4.495233e+01	-8.537443e+01	2.632278e+01	-7.221304e+01	9.853582e+01
350           	4.847727e+00	3.302512e+01	-2.817739e+01	1.575629e-01	-2.455379e+00	2.612942e+00	-2.534161e+00	3.060125e+01	-7.174625e+01	1.780108e+01	-6.284571e+01	8.064679e+01
400           	4.832763e+00	3.176631e+01	-2.693355e+01	1.465524e-01	-2.473713e+00	2.620265e+00	-2.546989e+00	2.934993e+01	-7.026923e+01	1.629936e+01	-6.211955e+01	7.841891e+01
