# Force and moment coefficients
# dragDir     : (1.000000e+00 0.000000e+00 0.000000e+00)
# sideDir     : (0.000000e+00 0.000000e+00 -1.000000e+00)
# liftDir     : (0.000000e+00 1.000000e+00 0.000000e+00)
# rollAxis    : (1.000000e+00 0.000000e+00 0.000000e+00)
# pitchAxis   : (0.000000e+00 0.000000e+00 -1.000000e+00)
# yawAxis     : (0.000000e+00 1.000000e+00 0.000000e+00)
# magUInf     : 2.200000e+01
# lRef        : 1.000000e+00
# Aref        : 1.000000e+00
# CofR        : (0.000000e+00 0.000000e+00 0.000000e+00)
#
# Time        	Cd            	Cd(f)         	Cd(r)         	Cl            	Cl(f)         	Cl(r)         	CmPitch       	CmRoll        	CmYaw         	Cs            	Cs(f)         	Cs(r)         
50            	3.078167e-01	8.568487e+00	-8.260670e+00	-4.589346e-02	-1.501811e-01	1.042877e-01	-1.272344e-01	8.414578e+00	-1.117962e+01	3.834273e+00	-9.262488e+00	1.309676e+01
100           	2.194027e-01	3.711784e+00	-3.492381e+00	-3.121085e-02	-1.089825e-01	7.777164e-02	-9.337706e-02	3.602083e+00	-5.756018e+00	1.844083e+00	-4.833977e+00	6.678059e+00
150           	1.837380e-01	2.503921e+00	-2.320183e+00	-1.501649e-02	-9.486190e-02	7.984541e-02	-8.735366e-02	2.412052e+00	-4.191211e+00	1.375203e+00	-3.503609e+00	4.878812e+00
200           	1.544176e-01	2.395151e+00	-2.240733e+00	-4.426273e-03	-8.620527e-02	8.177900e-02	-8.399213e-02	2.317942e+00	-3.823328e+00	1.387832e+00	-3.129412e+00	4.517244e+00
250           	1.512664e-01	1.958663e+00	-1.807397e+00	6.300682e-03	-8.022249e-02	8.652318e-02	-8.337284e-02	1.883030e+00	-3.230510e+00	1.100619e+00	-2.680200e+00	3.780819e+00
300           	1.530701e-01	1.562562e+00	-1.409492e+00	5.089419e-03	-8.083141e-02	8.592083e-02	-8.337612e-02	1.486027e+00	-2.822295e+00	8.701746e-01	-2.387208e+00	3.257382e+00
350           	1.602554e-01	1.091739e+00	-9.314839e-01	5.208689e-03	-8.116957e-02	8.637826e-02	-8.377391e-02	1.011612e+00	-2.371777e+00	5.884655e-01	-2.077544e+00	2.666010e+00
400           	1.597608e-01	1.050126e+00	-8.903651e-01	4.844709e-03	-8.177563e-02	8.662034e-02	-8.419798e-02	9.702455e-01	-2.322950e+00	5.388218e-01	-2.053539e+00	2.592361e+00
