# Force and moment coefficients
# dragDir     : (1.000000e+00 0.000000e+00 0.000000e+00)
# sideDir     : (0.000000e+00 0.000000e+00 -1.000000e+00)
# liftDir     : (0.000000e+00 1.000000e+00 0.000000e+00)
# rollAxis    : (1.000000e+00 0.000000e+00 0.000000e+00)
# pitchAxis   : (0.000000e+00 0.000000e+00 -1.000000e+00)
# yawAxis     : (0.000000e+00 1.000000e+00 0.000000e+00)
# magUInf     : 1.600000e+01
# lRef        : 1.000000e+00
# Aref        : 1.000000e+00
# CofR        : (0.000000e+00 0.000000e+00 0.000000e+00)
#
# Time        	Cd            	Cd(f)         	Cd(r)         	Cl            	Cl(f)         	Cl(r)         	CmPitch       	CmRoll        	CmYaw         	Cs            	Cs(f)         	Cs(r)         
50            	5.819659e-01	1.619980e+01	-1.561783e+01	-8.676732e-02	-2.839362e-01	1.971689e-01	-2.405526e-01	1.590881e+01	-2.113648e+01	7.249173e+00	-1.751189e+01	2.476106e+01
100           	4.148082e-01	7.017592e+00	-6.602783e+00	-5.900802e-02	-2.060450e-01	1.470370e-01	-1.765410e-01	6.810187e+00	-1.088247e+01	3.486469e+00	-9.139237e+00	1.262571e+01
150           	3.473796e-01	4.733975e+00	-4.386595e+00	-2.839056e-02	-1.793483e-01	1.509577e-01	-1.651530e-01	4.560285e+00	-7.924008e+00	2.599992e+00	-6.624011e+00	9.224004e+00
200           	2.919458e-01	4.528332e+00	-4.236386e+00	-8.368422e-03	-1.629818e-01	1.546134e-01	-1.587976e-01	4.382359e+00	-7.228479e+00	2.623870e+00	-5.916544e+00	8.540414e+00
250           	2.859880e-01	3.703098e+00	-3.417110e+00	1.191223e-02	-1.516707e-01	1.635829e-01	-1.576268e-01	3.560104e+00	-6.107682e+00	2.080857e+00	-5.067253e+00	7.148111e+00
300           	2.893982e-01	2.954220e+00	-2.664821e+00	9.622183e-03	-1.528219e-01	1.624441e-01	-1.576330e-01	2.809521e+00	-5.335902e+00	1.645174e+00	-4.513315e+00	6.158489e+00
350           	3.029830e-01	2.064070e+00	-1.761087e+00	9.847678e-03	-1.534612e-01	1.633089e-01	-1.583851e-01	1.912578e+00	-4.484141e+00	1.112568e+00	-3.927857e+00	5.040425e+00
400           	3.020477e-01	1.985394e+00	-1.683347e+00	9.159527e-03	-1.546071e-01	1.637666e-01	-1.591868e-01	1.834370e+00	-4.391827e+00	1.018710e+00	-3.882472e+00	4.901182e+00
