# Force and moment coefficients
# dragDir     : (1.000000e+00 0.000000e+00 0.000000e+00)
# sideDir     : (0.000000e+00 0.000000e+00 -1.000000e+00)
# liftDir     : (0.000000e+00 1.000000e+00 0.000000e+00)
# rollAxis    : (1.000000e+00 0.000000e+00 0.000000e+00)
# pitchAxis   : (0.000000e+00 0.000000e+00 -1.000000e+00)
# yawAxis     : (0.000000e+00 1.000000e+00 0.000000e+00)
# magUInf     : 1.700000e+01
# lRef        : 1.000000e+00
# Aref        : 1.000000e+00
# CofR        : (0.000000e+00 0.000000e+00 0.000000e+00)
#
# Time        	Cd            	Cd(f)         	Cd(r)         	Cl            	Cl(f)         	Cl(r)         	CmPitch       	CmRoll        	CmYaw         	Cs            	Cs(f)         	Cs(r)         
50            	4.752354e-01	1.192064e+01	-1.144541e+01	-6.514717e-02	-2.144931e-01	1.493460e-01	-1.819195e-01	1.168303e+01	-1.614522e+01	5.531331e+00	-1.337955e+01	1.891089e+01
100           	3.729853e-01	5.450973e+00	-5.077988e+00	-3.570461e-02	-1.662338e-01	1.305292e-01	-1.483815e-01	5.264481e+00	-8.820389e+00	2.578917e+00	-7.530930e+00	1.010985e+01
150           	3.280557e-01	3.200230e+00	-2.872175e+00	-4.095959e-03	-1.471081e-01	1.430121e-01	-1.450601e-01	3.036202e+00	-5.942527e+00	1.488750e+00	-5.198152e+00	6.686902e+00
200           	3.020127e-01	2.059933e+00	-1.757920e+00	4.938667e-03	-1.412973e-01	1.462359e-01	-1.437666e-01	1.908927e+00	-4.468097e+00	9.151260e-01	-4.010534e+00	4.925660e+00
250           	2.899556e-01	1.430008e+00	-1.140052e+00	-1.541854e-03	-1.439960e-01	1.424542e-01	-1.432251e-01	1.285030e+00	-3.692441e+00	5.936076e-01	-3.395637e+00	3.989245e+00
300           	2.827462e-01	1.064134e+00	-7.813878e-01	-1.829694e-02	-1.516230e-01	1.333261e-01	-1.424746e-01	9.227608e-01	-3.269133e+00	4.229564e-01	-3.057655e+00	3.480611e+00
350           	2.737380e-01	9.153197e-01	-6.415817e-01	-2.566545e-02	-1.549510e-01	1.292855e-01	-1.421182e-01	7.784507e-01	-3.071733e+00	3.694506e-01	-2.887008e+00	3.256459e+00
400           	2.675548e-01	8.457313e-01	-5.781765e-01	-2.862017e-02	-1.561674e-01	1.275473e-01	-1.418573e-01	7.119539e-01	-2.984124e+00	3.517665e-01	-2.808240e+00	3.160007e+00
