# Force and moment coefficients
# dragDir     : (1.000000e+00 0.000000e+00 0.000000e+00)
# sideDir     : (0.000000e+00 0.000000e+00 -1.000000e+00)
# liftDir     : (0.000000e+00 1.000000e+00 0.000000e+00)
# rollAxis    : (1.000000e+00 0.000000e+00 0.000000e+00)
# pitchAxis   : (0.000000e+00 0.000000e+00 -1.000000e+00)
# yawAxis     : (0.000000e+00 1.000000e+00 0.000000e+00)
# magUInf     : 1.000000e+01
# lRef        : 1.000000e+00
# Aref        : 1.000000e+00
# CofR        : (0.000000e+00 0.000000e+00 0.000000e+00)
#
# Time        	Cd            	Cd(f)         	Cd(r)         	Cl            	Cl(f)         	Cl(r)         	CmPitch       	CmRoll        	CmYaw         	Cs            	Cs(f)         	Cs(r)         
50            	2.966643e+00	-2.308700e+01	2.605364e+01	-1.158700e+00	4.098786e-01	-1.568579e+00	9.892287e-01	-2.457032e+01	-6.425181e+01	5.387514e+01	-3.731424e+01	9.118938e+01
100           	1.906277e+00	-1.336150e+01	1.526778e+01	-4.651624e-01	9.169438e-02	-5.568568e-01	3.242756e-01	-1.431464e+01	-4.217950e+01	3.262964e+01	-2.586468e+01	5.849432e+01
150           	1.521751e+00	-9.430624e+00	1.095238e+01	-2.242863e-01	7.376210e-02	-2.980484e-01	1.859053e-01	-1.019150e+01	-3.035371e+01	2.443253e+01	-1.813745e+01	4.256997e+01
200           	1.320897e+00	-7.247937e+00	8.568834e+00	-8.114735e-02	9.631863e-02	-1.774660e-01	1.368923e-01	-7.908386e+00	-2.255329e+01	1.911658e+01	-1.299500e+01	3.211158e+01
250           	1.184029e+00	-5.690593e+00	6.874622e+00	-2.084479e-02	9.052207e-02	-1.113669e-01	1.009445e-01	-6.282607e+00	-1.732757e+01	1.496380e+01	-9.845672e+00	2.480947e+01
300           	1.096484e+00	-4.393390e+00	5.489874e+00	1.576430e-02	8.134428e-02	-6.557998e-02	7.346213e-02	-4.941632e+00	-1.394293e+01	1.167453e+01	-8.105658e+00	1.978019e+01
350           	1.042660e+00	-3.311744e+00	4.354404e+00	3.953712e-02	7.193307e-02	-3.239594e-02	5.216450e-02	-3.833074e+00	-1.169278e+01	9.074129e+00	-7.155717e+00	1.622985e+01
400           	1.006546e+00	-2.387865e+00	3.394411e+00	5.495127e-02	6.432920e-02	-9.377934e-03	3.685357e-02	-2.891138e+00	-1.018392e+01	7.001873e+00	-6.682983e+00	1.368486e+01
