# Force and moment coefficients
# dragDir     : (1.000000e+00 0.000000e+00 0.000000e+00)
# sideDir     : (0.000000e+00 0.000000e+00 -1.000000e+00)
# liftDir     : (0.000000e+00 1.000000e+00 0.000000e+00)
# rollAxis    : (1.000000e+00 0.000000e+00 0.000000e+00)
# pitchAxis   : (0.000000e+00 0.000000e+00 -1.000000e+00)
# yawAxis     : (0.000000e+00 1.000000e+00 0.000000e+00)
# magUInf     : 1.400000e+01
# lRef        : 1.000000e+00
# Aref        : 1.000000e+00
# CofR        : (0.000000e+00 0.000000e+00 0.000000e+00)
#
# Time        	Cd            	Cd(f)         	Cd(r)         	Cl            	Cl(f)         	Cl(r)         	CmPitch       	CmRoll        	CmYaw         	Cs            	Cs(f)         	Cs(r)         
50            	7.007298e-01	1.757687e+01	-1.687614e+01	-9.605883e-02	-3.162679e-01	2.202091e-01	-2.682385e-01	1.722650e+01	-2.380596e+01	8.155890e+00	-1.972802e+01	2.788391e+01
100           	5.499630e-01	8.037405e+00	-7.487442e+00	-5.264608e-02	-2.451100e-01	1.924640e-01	-2.187870e-01	7.762423e+00	-1.300557e+01	3.802587e+00	-1.110428e+01	1.490687e+01
150           	4.837148e-01	4.718707e+00	-4.234992e+00	-6.039450e-03	-2.169093e-01	2.108699e-01	-2.138896e-01	4.476850e+00	-8.762196e+00	2.195146e+00	-7.664623e+00	9.859769e+00
200           	4.453147e-01	3.037350e+00	-2.592035e+00	7.282014e-03	-2.083414e-01	2.156234e-01	-2.119824e-01	2.814693e+00	-6.588164e+00	1.349344e+00	-5.913492e+00	7.262836e+00
250           	4.275366e-01	2.108532e+00	-1.680996e+00	-2.273449e-03	-2.123206e-01	2.100472e-01	-2.111839e-01	1.894764e+00	-5.444466e+00	8.752683e-01	-5.006832e+00	5.882100e+00
300           	4.169064e-01	1.569055e+00	-1.152148e+00	-2.697865e-02	-2.235666e-01	1.965880e-01	-2.100773e-01	1.360601e+00	-4.820303e+00	6.236449e-01	-4.508481e+00	5.132126e+00
350           	4.036238e-01	1.349629e+00	-9.460057e-01	-3.784344e-02	-2.284736e-01	1.906302e-01	-2.095519e-01	1.147818e+00	-4.529240e+00	5.447511e-01	-4.256864e+00	4.801615e+00
400           	3.945068e-01	1.247022e+00	-8.525154e-01	-4.220014e-02	-2.302673e-01	1.880671e-01	-2.091672e-01	1.049769e+00	-4.400060e+00	5.186761e-01	-4.140722e+00	4.659398e+00
