# Force and moment coefficients
# dragDir     : (1.000000e+00 0.000000e+00 0.000000e+00)
# sideDir     : (0.000000e+00 0.000000e+00 -1.000000e+00)
# liftDir     : (0.000000e+00 1.000000e+00 0.000000e+00)
# rollAxis    : (1.000000e+00 0.000000e+00 0.000000e+00)
# pitchAxis   : (0.000000e+00 0.000000e+00 -1.000000e+00)
# yawAxis     : (0.000000e+00 1.000000e+00 0.000000e+00)
# magUInf     : 2.100000e+01
# lRef        : 1.000000e+00
# Aref        : 1.000000e+00
# CofR        : (0.000000e+00 0.000000e+00 0.000000e+00)
#
# Time        	Cd            	Cd(f)         	Cd(r)         	Cl            	Cl(f)         	Cl(r)         	CmPitch       	CmRoll        	CmYaw         	Cs            	Cs(f)         	Cs(r)         
50            	2.462238e-01	7.515730e+00	-7.269506e+00	-5.363647e-02	-1.466590e-01	9.302256e-02	-1.198408e-01	7.392618e+00	-1.012886e+01	3.516092e+00	-8.370813e+00	1.188691e+01
100           	1.978301e-01	3.414639e+00	-3.216809e+00	-3.071735e-02	-1.148839e-01	8.416656e-02	-9.952524e-02	3.315724e+00	-5.515720e+00	1.652465e+00	-4.689487e+00	6.341953e+00
150           	1.713411e-01	1.881200e+00	-1.709859e+00	-8.571124e-03	-1.005316e-01	9.196048e-02	-9.624604e-02	1.795530e+00	-3.538897e+00	8.875962e-01	-3.095099e+00	3.982695e+00
200           	1.550138e-01	1.125567e+00	-9.705529e-01	3.014058e-03	-9.369276e-02	9.670682e-02	-9.519979e-02	1.048060e+00	-2.533058e+00	4.993821e-01	-2.283367e+00	2.782749e+00
250           	1.504904e-01	7.337174e-01	-5.832270e-01	1.079723e-02	-8.929498e-02	1.000922e-01	-9.469360e-02	6.584722e-01	-2.011872e+00	2.843928e-01	-1.869675e+00	2.154068e+00
300           	1.545394e-01	5.473250e-01	-3.927856e-01	1.292521e-02	-8.810249e-02	1.010277e-01	-9.456510e-02	4.700553e-01	-1.778688e+00	1.762027e-01	-1.690586e+00	1.866789e+00
350           	1.610083e-01	4.739640e-01	-3.129557e-01	1.337008e-02	-8.785887e-02	1.012290e-01	-9.454391e-02	3.934599e-01	-1.703390e+00	1.293416e-01	-1.638719e+00	1.768061e+00
400           	1.630726e-01	4.316200e-01	-2.685473e-01	1.306977e-02	-8.796501e-02	1.010348e-01	-9.449990e-02	3.500836e-01	-1.662459e+00	1.070946e-01	-1.608912e+00	1.716006e+00
