# Force and moment coefficients
# dragDir     : (1.000000e+00 0.000000e+00 0.000000e+00)
# sideDir     : (0.000000e+00 0.000000e+00 -1.000000e+00)
# liftDir     : (0.000000e+00 1.000000e+00 0.000000e+00)
# rollAxis    : (1.000000e+00 0.000000e+00 0.000000e+00)
# pitchAxis   : (0.000000e+00 0.000000e+00 -1.000000e+00)
# yawAxis     : (0.000000e+00 1.000000e+00 0.000000e+00)
# magUInf     : 1.800000e+01
# lRef        : 1.000000e+00
# Aref        : 1.000000e+00
# CofR        : (0.000000e+00 0.000000e+00 0.000000e+00)
#
# Time        	Cd            	Cd(f)         	Cd(r)         	Cl            	Cl(f)         	Cl(r)         	CmPitch       	CmRoll        	CmYaw         	Cs            	Cs(f)         	Cs(r)         
50            	4.238983e-01	1.063292e+01	-1.020902e+01	-5.810966e-02	-1.913226e-01	1.332129e-01	-1.622677e-01	1.042097e+01	-1.440114e+01	4.933810e+00	-1.193423e+01	1.686804e+01
100           	3.326937e-01	4.862134e+00	-4.529440e+00	-3.184763e-02	-1.482764e-01	1.164288e-01	-1.323526e-01	4.695787e+00	-7.867569e+00	2.300330e+00	-6.717404e+00	9.017734e+00
150           	2.926176e-01	2.854526e+00	-2.561909e+00	-3.653494e-03	-1.312168e-01	1.275633e-01	-1.293900e-01	2.708218e+00	-5.300588e+00	1.327928e+00	-4.636624e+00	5.964552e+00
200           	2.693879e-01	1.837409e+00	-1.568021e+00	4.405169e-03	-1.260337e-01	1.304389e-01	-1.282363e-01	1.702715e+00	-3.985432e+00	8.162698e-01	-3.577298e+00	4.393567e+00
250           	2.586333e-01	1.275532e+00	-1.016899e+00	-1.375296e-03	-1.284409e-01	1.270656e-01	-1.277532e-01	1.146215e+00	-3.293566e+00	5.294833e-01	-3.028824e+00	3.558308e+00
300           	2.522026e-01	9.491812e-01	-6.969786e-01	-1.632042e-02	-1.352440e-01	1.189236e-01	-1.270838e-01	8.230799e-01	-2.915986e+00	3.772667e-01	-2.727352e+00	3.104619e+00
350           	2.441675e-01	8.164425e-01	-5.722750e-01	-2.289294e-02	-1.382124e-01	1.153195e-01	-1.267660e-01	6.943588e-01	-2.739910e+00	3.295408e-01	-2.575140e+00	2.904681e+00
400           	2.386522e-01	7.543714e-01	-5.157192e-01	-2.552848e-02	-1.392975e-01	1.137690e-01	-1.265332e-01	6.350453e-01	-2.661765e+00	3.137670e-01	-2.504881e+00	2.818648e+00
