# Force and moment coefficients
# dragDir     : (1.000000e+00 0.000000e+00 0.000000e+00)
# sideDir     : (0.000000e+00 0.000000e+00 -1.000000e+00)
# liftDir     : (0.000000e+00 1.000000e+00 0.000000e+00)
# rollAxis    : (1.000000e+00 0.000000e+00 0.000000e+00)
# pitchAxis   : (0.000000e+00 0.000000e+00 -1.000000e+00)
# yawAxis     : (0.000000e+00 1.000000e+00 0.000000e+00)
# magUInf     : 2.600000e+01
# lRef        : 1.000000e+00
# Aref        : 1.000000e+00
# CofR        : (0.000000e+00 0.000000e+00 0.000000e+00)
#
# Time        	Cd            	Cd(f)         	Cd(r)         	Cl            	Cl(f)         	Cl(r)         	CmPitch       	CmRoll        	CmYaw         	Cs            	Cs(f)         	Cs(r)         
50            	2.031702e-01	5.096252e+00	-4.893082e+00	-2.785138e-02	-9.169898e-02	6.384760e-02	-7.777329e-02	4.994667e+00	-6.902320e+00	2.364726e+00	-5.719958e+00	8.084683e+00
100           	1.594567e-01	2.330372e+00	-2.170915e+00	-1.526425e-02	-7.106741e-02	5.580316e-02	-6.343529e-02	2.250643e+00	-3.770847e+00	1.102525e+00	-3.219584e+00	4.322109e+00
150           	1.402487e-01	1.368146e+00	-1.227897e+00	-1.751083e-03	-6.289088e-02	6.113979e-02	-6.201533e-02	1.298021e+00	-2.540518e+00	6.364625e-01	-2.222287e+00	2.858750e+00
200           	1.291149e-01	8.806518e-01	-7.515369e-01	2.111353e-03	-6.040668e-02	6.251803e-02	-6.146235e-02	8.160944e-01	-1.910178e+00	3.912299e-01	-1.714563e+00	2.105793e+00
250           	1.239603e-01	6.113496e-01	-4.873893e-01	-6.591656e-04	-6.156042e-02	6.090126e-02	-6.123084e-02	5.493695e-01	-1.578573e+00	2.537760e-01	-1.451685e+00	1.705461e+00
300           	1.208782e-01	4.549330e-01	-3.340548e-01	-7.822213e-03	-6.482109e-02	5.699888e-02	-6.090999e-02	3.944939e-01	-1.397603e+00	1.808201e-01	-1.307193e+00	1.488013e+00
350           	1.170270e-01	3.913127e-01	-2.742857e-01	-1.097236e-02	-6.624382e-02	5.527147e-02	-6.075764e-02	3.327992e-01	-1.313211e+00	1.579456e-01	-1.234239e+00	1.392184e+00
400           	1.143836e-01	3.615626e-01	-2.471790e-01	-1.223554e-02	-6.676388e-02	5.452834e-02	-6.064611e-02	3.043708e-01	-1.275757e+00	1.503854e-01	-1.200564e+00	1.350950e+00
