# Force and moment coefficients
# dragDir     : (1.000000e+00 0.000000e+00 0.000000e+00)
# sideDir     : (0.000000e+00 0.000000e+00 -1.000000e+00)
# liftDir     : (0.000000e+00 1.000000e+00 0.000000e+00)
# rollAxis    : (1.000000e+00 0.000000e+00 0.000000e+00)
# pitchAxis   : (0.000000e+00 0.000000e+00 -1.000000e+00)
# yawAxis     : (0.000000e+00 1.000000e+00 0.000000e+00)
# magUInf     : 7.000000e+00
# lRef        : 1.000000e+00
# Aref        : 1.000000e+00
# CofR        : (0.000000e+00 0.000000e+00 0.000000e+00)
#
# Time        	Cd            	Cd(f)         	Cd(r)         	Cl            	Cl(f)         	Cl(r)         	CmPitch       	CmRoll        	CmYaw         	Cs            	Cs(f)         	Cs(r)         
50            	2.802919e+00	7.030748e+01	-6.750456e+01	-3.842353e-01	-1.265072e+00	8.808363e-01	-1.072954e+00	6.890602e+01	-9.522385e+01	3.262356e+01	-7.891207e+01	1.115356e+02
100           	2.199852e+00	3.214962e+01	-2.994977e+01	-2.105843e-01	-9.804402e-01	7.698559e-01	-8.751480e-01	3.104969e+01	-5.202229e+01	1.521035e+01	-4.441712e+01	5.962747e+01
150           	1.934859e+00	1.887483e+01	-1.693997e+01	-2.415780e-02	-8.676374e-01	8.434796e-01	-8.555585e-01	1.790740e+01	-3.504878e+01	8.780585e+00	-3.065849e+01	3.943908e+01
200           	1.781259e+00	1.214940e+01	-1.036814e+01	2.912806e-02	-8.333656e-01	8.624936e-01	-8.479296e-01	1.125877e+01	-2.635266e+01	5.397376e+00	-2.365397e+01	2.905134e+01
250           	1.710146e+00	8.434129e+00	-6.723983e+00	-9.093794e-03	-8.492826e-01	8.401888e-01	-8.447357e-01	7.579056e+00	-2.177786e+01	3.501073e+00	-2.002733e+01	2.352840e+01
300           	1.667625e+00	6.276218e+00	-4.608593e+00	-1.079146e-01	-8.942665e-01	7.863519e-01	-8.403092e-01	5.442406e+00	-1.928121e+01	2.494580e+00	-1.803392e+01	2.052850e+01
350           	1.614495e+00	5.398518e+00	-3.784023e+00	-1.513738e-01	-9.138944e-01	7.625206e-01	-8.382075e-01	4.591270e+00	-1.811696e+01	2.179004e+00	-1.702746e+01	1.920646e+01
400           	1.578027e+00	4.988089e+00	-3.410062e+00	-1.688006e-01	-9.210691e-01	7.522685e-01	-8.366688e-01	4.199075e+00	-1.760024e+01	2.074704e+00	-1.656289e+01	1.863759e+01
