# Force and moment coefficients
# dragDir     : (1.000000e+00 0.000000e+00 0.000000e+00)
# sideDir     : (0.000000e+00 0.000000e+00 -1.000000e+00)
# liftDir     : (0.000000e+00 1.000000e+00 0.000000e+00)
# rollAxis    : (1.000000e+00 0.000000e+00 0.000000e+00)
# pitchAxis   : (0.000000e+00 0.000000e+00 -1.000000e+00)
# yawAxis     : (0.000000e+00 1.000000e+00 0.000000e+00)
# magUInf     : 1.100000e+01
# lRef        : 1.000000e+00
# Aref        : 1.000000e+00
# CofR        : (0.000000e+00 0.000000e+00 0.000000e+00)
#
# Time        	Cd            	Cd(f)         	Cd(r)         	Cl            	Cl(f)         	Cl(r)         	CmPitch       	CmRoll        	CmYaw         	Cs            	Cs(f)         	Cs(r)         
50            	8.973942e-01	2.739204e+01	-2.649465e+01	-1.954850e-01	-5.345176e-01	3.390326e-01	-4.367751e-01	2.694334e+01	-3.691593e+01	1.281485e+01	-3.050850e+01	4.332335e+01
100           	7.210170e-01	1.244509e+01	-1.172407e+01	-1.119533e-01	-4.187091e-01	3.067558e-01	-3.627325e-01	1.208458e+01	-2.010275e+01	6.022621e+00	-1.709144e+01	2.311406e+01
150           	6.244744e-01	6.856275e+00	-6.231801e+00	-3.123856e-02	-3.664003e-01	3.351617e-01	-3.507810e-01	6.544038e+00	-1.289796e+01	3.234958e+00	-1.128048e+01	1.451544e+01
200           	5.649676e-01	4.102272e+00	-3.537304e+00	1.098512e-02	-3.414753e-01	3.524604e-01	-3.469678e-01	3.819788e+00	-9.232053e+00	1.820062e+00	-8.322022e+00	1.014208e+01
250           	5.484817e-01	2.674127e+00	-2.125645e+00	3.935188e-02	-3.254470e-01	3.647989e-01	-3.451229e-01	2.399886e+00	-7.332524e+00	1.036506e+00	-6.814271e+00	7.850777e+00
300           	5.632386e-01	1.994796e+00	-1.431557e+00	4.710758e-02	-3.211008e-01	3.682084e-01	-3.446546e-01	1.713177e+00	-6.482656e+00	6.421932e-01	-6.161559e+00	6.803752e+00
350           	5.868155e-01	1.727423e+00	-1.140607e+00	4.872899e-02	-3.202129e-01	3.689419e-01	-3.445774e-01	1.434015e+00	-6.208224e+00	4.714022e-01	-5.972523e+00	6.443925e+00
400           	5.943390e-01	1.573094e+00	-9.787552e-01	4.763445e-02	-3.205998e-01	3.682342e-01	-3.444170e-01	1.275925e+00	-6.059045e+00	3.903202e-01	-5.863885e+00	6.254205e+00
