# Force and moment coefficients
# dragDir     : (1.000000e+00 0.000000e+00 0.000000e+00)
# sideDir     : (0.000000e+00 0.000000e+00 -1.000000e+00)
# liftDir     : (0.000000e+00 1.000000e+00 0.000000e+00)
# rollAxis    : (1.000000e+00 0.000000e+00 0.000000e+00)
# pitchAxis   : (0.000000e+00 0.000000e+00 -1.000000e+00)
# yawAxis     : (0.000000e+00 1.000000e+00 0.000000e+00)
# magUInf     : 1.800000e+01
# lRef        : 1.000000e+00
# Aref        : 1.000000e+00
# CofR        : (0.000000e+00 0.000000e+00 0.000000e+00)
#
# Time        	Cd            	Cd(f)         	Cd(r)         	Cl            	Cl(f)         	Cl(r)         	CmPitch       	CmRoll        	CmYaw         	Cs            	Cs(f)         	Cs(r)         
50            	4.598249e-01	1.279984e+01	-1.234001e+01	-6.855689e-02	-2.243447e-01	1.557878e-01	-1.900662e-01	1.256993e+01	-1.670043e+01	5.727742e+00	-1.383656e+01	1.956430e+01
100           	3.277497e-01	5.544764e+00	-5.217014e+00	-4.662362e-02	-1.628010e-01	1.161774e-01	-1.394892e-01	5.380889e+00	-8.598496e+00	2.754741e+00	-7.221125e+00	9.975866e+00
150           	2.744728e-01	3.740425e+00	-3.465952e+00	-2.243205e-02	-1.417073e-01	1.192752e-01	-1.304913e-01	3.603188e+00	-6.260944e+00	2.054315e+00	-5.233787e+00	7.288102e+00
200           	2.306733e-01	3.577942e+00	-3.347268e+00	-6.612086e-03	-1.287758e-01	1.221637e-01	-1.254697e-01	3.462605e+00	-5.711391e+00	2.073181e+00	-4.674800e+00	6.747981e+00
250           	2.259658e-01	2.925905e+00	-2.699939e+00	9.412130e-03	-1.198385e-01	1.292507e-01	-1.245446e-01	2.812922e+00	-4.825823e+00	1.644134e+00	-4.003756e+00	5.647890e+00
300           	2.286603e-01	2.334198e+00	-2.105538e+00	7.602712e-03	-1.207482e-01	1.283509e-01	-1.245495e-01	2.219868e+00	-4.216021e+00	1.299890e+00	-3.566076e+00	4.865966e+00
350           	2.393939e-01	1.630870e+00	-1.391476e+00	7.780882e-03	-1.212533e-01	1.290342e-01	-1.251437e-01	1.511173e+00	-3.543025e+00	8.790657e-01	-3.103492e+00	3.982558e+00
400           	2.386550e-01	1.568707e+00	-1.330052e+00	7.237157e-03	-1.221587e-01	1.293958e-01	-1.257772e-01	1.449379e+00	-3.470085e+00	8.049066e-01	-3.067632e+00	3.872539e+00
