# Force and moment coefficients
# dragDir     : (1.000000e+00 0.000000e+00 0.000000e+00)
# sideDir     : (0.000000e+00 0.000000e+00 -1.000000e+00)
# liftDir     : (0.000000e+00 1.000000e+00 0.000000e+00)
# rollAxis    : (1.000000e+00 0.000000e+00 0.000000e+00)
# pitchAxis   : (0.000000e+00 0.000000e+00 -1.000000e+00)
# yawAxis     : (0.000000e+00 1.000000e+00 0.000000e+00)
# magUInf     : 1.300000e+01
# lRef        : 1.000000e+00
# Aref        : 1.000000e+00
# CofR        : (0.000000e+00 0.000000e+00 0.000000e+00)
#
# Time        	Cd            	Cd(f)         	Cd(r)         	Cl            	Cl(f)         	Cl(r)         	CmPitch       	CmRoll        	CmYaw         	Cs            	Cs(f)         	Cs(r)         
50            	8.815578e-01	2.453933e+01	-2.365778e+01	-1.314345e-01	-4.301046e-01	2.986701e-01	-3.643873e-01	2.409856e+01	-3.201739e+01	1.098100e+01	-2.652689e+01	3.750788e+01
100           	6.283484e-01	1.063020e+01	-1.000185e+01	-8.938493e-02	-3.121155e-01	2.227306e-01	-2.674231e-01	1.031602e+01	-1.648469e+01	5.281278e+00	-1.384405e+01	1.912533e+01
150           	5.262082e-01	7.170992e+00	-6.644783e+00	-4.300582e-02	-2.716755e-01	2.286697e-01	-2.501726e-01	6.907887e+00	-1.200323e+01	3.938450e+00	-1.003401e+01	1.397246e+01
200           	4.422375e-01	6.859485e+00	-6.417248e+00	-1.267643e-02	-2.468837e-01	2.342073e-01	-2.405455e-01	6.638367e+00	-1.094965e+01	3.974619e+00	-8.962339e+00	1.293696e+01
250           	4.332125e-01	5.609427e+00	-5.176214e+00	1.804456e-02	-2.297496e-01	2.477942e-01	-2.387719e-01	5.392820e+00	-9.251874e+00	3.152068e+00	-7.675840e+00	1.082791e+01
300           	4.383783e-01	4.475031e+00	-4.036653e+00	1.457561e-02	-2.314935e-01	2.460691e-01	-2.387813e-01	4.255842e+00	-8.082786e+00	2.492098e+00	-6.836737e+00	9.328835e+00
350           	4.589564e-01	3.126638e+00	-2.667682e+00	1.491719e-02	-2.324620e-01	2.473791e-01	-2.399206e-01	2.897160e+00	-6.792545e+00	1.685309e+00	-5.949890e+00	7.635199e+00
400           	4.575397e-01	3.007461e+00	-2.549921e+00	1.387479e-02	-2.341977e-01	2.480725e-01	-2.411351e-01	2.778691e+00	-6.652708e+00	1.543135e+00	-5.881141e+00	7.424275e+00
