# Force and moment coefficients
# dragDir     : (1.000000e+00 0.000000e+00 0.000000e+00)
# sideDir     : (0.000000e+00 0.000000e+00 -1.000000e+00)
# liftDir     : (0.000000e+00 1.000000e+00 0.000000e+00)
# rollAxis    : (1.000000e+00 0.000000e+00 0.000000e+00)
# pitchAxis   : (0.000000e+00 0.000000e+00 -1.000000e+00)
# yawAxis     : (0.000000e+00 1.000000e+00 0.000000e+00)
# magUInf     : 2.000000e+01
# lRef        : 1.000000e+00
# Aref        : 1.000000e+00
# CofR        : (0.000000e+00 0.000000e+00 0.000000e+00)
#
# Time        	Cd            	Cd(f)         	Cd(r)         	Cl            	Cl(f)         	Cl(r)         	CmPitch       	CmRoll        	CmYaw         	Cs            	Cs(f)         	Cs(r)         
50            	5.734294e+00	1.201700e+02	-1.144357e+02	-1.779359e+00	-2.762610e+00	9.832510e-01	-1.872931e+00	1.173029e+02	-1.773174e+02	5.441732e+01	-1.501088e+02	2.045261e+02
100           	3.301947e+00	5.451951e+01	-5.121756e+01	-6.812249e-01	-1.048464e+00	3.672395e-01	-7.078519e-01	5.286854e+01	-9.348538e+01	2.469779e+01	-8.113648e+01	1.058343e+02
150           	2.944758e+00	3.384412e+01	-3.089936e+01	-5.675100e-01	-9.551471e-01	3.876371e-01	-6.713921e-01	3.237174e+01	-6.600762e+01	1.476531e+01	-5.862496e+01	7.339027e+01
200           	2.739341e+00	2.332869e+01	-2.058935e+01	-3.453756e-01	-7.613892e-01	4.160136e-01	-5.887014e-01	2.195902e+01	-5.200482e+01	9.607652e+00	-4.720100e+01	5.680865e+01
250           	2.533216e+00	1.706947e+01	-1.453625e+01	-3.157362e-01	-7.235768e-01	4.078406e-01	-5.657087e-01	1.580286e+01	-4.372356e+01	6.875715e+00	-4.028570e+01	4.716142e+01
300           	2.334289e+00	1.478203e+01	-1.244774e+01	-3.673466e-01	-7.421472e-01	3.748006e-01	-5.584739e-01	1.361488e+01	-4.060659e+01	6.346555e+00	-3.743331e+01	4.377986e+01
350           	2.049810e+00	1.666517e+01	-1.461535e+01	-4.923640e-01	-8.096145e-01	3.172505e-01	-5.634325e-01	1.564026e+01	-4.291542e+01	8.309238e+00	-3.876080e+01	4.707004e+01
400           	1.735484e+00	2.443162e+01	-2.269613e+01	-4.338134e-01	-7.771945e-01	3.433812e-01	-5.602878e-01	2.356387e+01	-5.121981e+01	1.348418e+01	-4.447772e+01	5.796190e+01
