# Force and moment coefficients
# dragDir     : (1.000000e+00 0.000000e+00 0.000000e+00)
# sideDir     : (0.000000e+00 0.000000e+00 -1.000000e+00)
# liftDir     : (0.000000e+00 1.000000e+00 0.000000e+00)
# rollAxis    : (1.000000e+00 0.000000e+00 0.000000e+00)
# pitchAxis   : (0.000000e+00 0.000000e+00 -1.000000e+00)
# yawAxis     : (0.000000e+00 1.000000e+00 0.000000e+00)
# magUInf     : 2.700000e+01
# lRef        : 1.000000e+00
# Aref        : 1.000000e+00
# CofR        : (0.000000e+00 0.000000e+00 0.000000e+00)
#
# Time        	Cd            	Cd(f)         	Cd(r)         	Cl            	Cl(f)         	Cl(r)         	CmPitch       	CmRoll        	CmYaw         	Cs            	Cs(f)         	Cs(r)         
50            	2.043666e-01	5.688817e+00	-5.484450e+00	-3.046973e-02	-9.970874e-02	6.923901e-02	-8.447388e-02	5.586634e+00	-7.422412e+00	2.545663e+00	-6.149580e+00	8.695243e+00
100           	1.456665e-01	2.464339e+00	-2.318673e+00	-2.072161e-02	-7.235600e-02	5.163439e-02	-6.199520e-02	2.391506e+00	-3.821554e+00	1.224329e+00	-3.209389e+00	4.433718e+00
150           	1.219879e-01	1.662411e+00	-1.540423e+00	-9.969799e-03	-6.298102e-02	5.301122e-02	-5.799612e-02	1.601417e+00	-2.782642e+00	9.130289e-01	-2.326127e+00	3.239156e+00
200           	1.025214e-01	1.590196e+00	-1.487675e+00	-2.938705e-03	-5.723368e-02	5.429497e-02	-5.576432e-02	1.538936e+00	-2.538396e+00	9.214137e-01	-2.077689e+00	2.999103e+00
250           	1.004292e-01	1.300402e+00	-1.199973e+00	4.183169e-03	-5.326157e-02	5.744474e-02	-5.535316e-02	1.250187e+00	-2.144810e+00	7.307263e-01	-1.779447e+00	2.510173e+00
300           	1.016268e-01	1.037421e+00	-9.357946e-01	3.378983e-03	-5.366585e-02	5.704483e-02	-5.535534e-02	9.866080e-01	-1.873787e+00	5.777291e-01	-1.584923e+00	2.162652e+00
350           	1.063973e-01	7.248311e-01	-6.184338e-01	3.458170e-03	-5.389036e-02	5.734853e-02	-5.561944e-02	6.716324e-01	-1.574678e+00	3.906959e-01	-1.379330e+00	1.770026e+00
400           	1.060689e-01	6.972029e-01	-5.911341e-01	3.216514e-03	-5.429274e-02	5.750925e-02	-5.590099e-02	6.441685e-01	-1.542260e+00	3.577363e-01	-1.363392e+00	1.721128e+00
