# Force and moment coefficients
# dragDir     : (1.000000e+00 0.000000e+00 0.000000e+00)
# sideDir     : (0.000000e+00 0.000000e+00 -1.000000e+00)
# liftDir     : (0.000000e+00 1.000000e+00 0.000000e+00)
# rollAxis    : (1.000000e+00 0.000000e+00 0.000000e+00)
# pitchAxis   : (0.000000e+00 0.000000e+00 -1.000000e+00)
# yawAxis     : (0.000000e+00 1.000000e+00 0.000000e+00)
# magUInf     : 8.000000e+00
# lRef        : 1.000000e+00
# Aref        : 1.000000e+00
# CofR        : (0.000000e+00 0.000000e+00 0.000000e+00)
#
# Time        	Cd            	Cd(f)         	Cd(r)         	Cl            	Cl(f)         	Cl(r)         	CmPitch       	CmRoll        	CmYaw         	Cs            	Cs(f)         	Cs(r)         
50            	1.696636e+00	5.178808e+01	-5.009144e+01	-3.695888e-01	-1.010572e+00	6.409835e-01	-8.257779e-01	5.093976e+01	-6.979417e+01	2.422807e+01	-5.768014e+01	8.190821e+01
100           	1.363173e+00	2.352900e+01	-2.216582e+01	-2.116617e-01	-7.916220e-01	5.799602e-01	-6.857911e-01	2.284741e+01	-3.800676e+01	1.138652e+01	-3.231350e+01	4.370002e+01
150           	1.180647e+00	1.296265e+01	-1.178200e+01	-5.906040e-02	-6.927256e-01	6.336652e-01	-6.631954e-01	1.237232e+01	-2.438521e+01	6.116092e+00	-2.132716e+01	2.744326e+01
200           	1.068142e+00	7.755858e+00	-6.687716e+00	2.076874e-02	-6.456017e-01	6.663704e-01	-6.559861e-01	7.221787e+00	-1.745435e+01	3.441055e+00	-1.573382e+01	1.917488e+01
250           	1.036973e+00	5.055772e+00	-4.018798e+00	7.439965e-02	-6.152982e-01	6.896979e-01	-6.524981e-01	4.537285e+00	-1.386305e+01	1.959644e+00	-1.288323e+01	1.484288e+01
300           	1.064873e+00	3.771411e+00	-2.706538e+00	8.906278e-02	-6.070812e-01	6.961440e-01	-6.516126e-01	3.238975e+00	-1.225627e+01	1.214147e+00	-1.164920e+01	1.286334e+01
350           	1.109448e+00	3.265908e+00	-2.156460e+00	9.212824e-02	-6.054025e-01	6.975308e-01	-6.514666e-01	2.711184e+00	-1.173742e+01	8.912447e-01	-1.129180e+01	1.218305e+01
400           	1.123672e+00	2.974131e+00	-1.850459e+00	9.005888e-02	-6.061339e-01	6.961928e-01	-6.511634e-01	2.412295e+00	-1.145538e+01	7.379490e-01	-1.108641e+01	1.182436e+01
