# Force and moment coefficients
# dragDir     : (1.000000e+00 0.000000e+00 0.000000e+00)
# sideDir     : (0.000000e+00 0.000000e+00 -1.000000e+00)
# liftDir     : (0.000000e+00 1.000000e+00 0.000000e+00)
# rollAxis    : (1.000000e+00 0.000000e+00 0.000000e+00)
# pitchAxis   : (0.000000e+00 0.000000e+00 -1.000000e+00)
# yawAxis     : (0.000000e+00 1.000000e+00 0.000000e+00)
# magUInf     : 2.000000e+00
# lRef        : 1.000000e+00
# Aref        : 1.000000e+00
# CofR        : (0.000000e+00 0.000000e+00 0.000000e+00)
#
# Time        	Cd            	Cd(f)         	Cd(r)         	Cl            	Cl(f)         	Cl(r)         	CmPitch       	CmRoll        	CmYaw         	Cs            	Cs(f)         	Cs(r)         
50            	3.724582e+01	1.036787e+03	-9.995411e+02	-5.553108e+00	-1.817192e+01	1.261881e+01	-1.539536e+01	1.018164e+03	-1.352735e+03	4.639471e+02	-1.120761e+03	1.584708e+03
100           	2.654772e+01	4.491259e+02	-4.225781e+02	-3.776513e+00	-1.318688e+01	9.410368e+00	-1.129862e+01	4.358520e+02	-6.964782e+02	2.231340e+02	-5.849112e+02	8.080452e+02
150           	2.223230e+01	3.029744e+02	-2.807421e+02	-1.816996e+00	-1.147829e+01	9.661294e+00	-1.056979e+01	2.918582e+02	-5.071365e+02	1.663995e+02	-4.239367e+02	5.903362e+02
200           	1.868453e+01	2.898133e+02	-2.711287e+02	-5.355790e-01	-1.043084e+01	9.895259e+00	-1.016305e+01	2.804710e+02	-4.626226e+02	1.679276e+02	-3.786588e+02	5.465865e+02
250           	1.830323e+01	2.369983e+02	-2.186950e+02	7.623825e-01	-9.706922e+00	1.046930e+01	-1.008811e+01	2.278467e+02	-3.908917e+02	1.331749e+02	-3.243042e+02	4.574791e+02
300           	1.852148e+01	1.890701e+02	-1.705486e+02	6.158197e-01	-9.780601e+00	1.039642e+01	-1.008851e+01	1.798093e+02	-3.414977e+02	1.052911e+02	-2.888522e+02	3.941433e+02
350           	1.939091e+01	1.321005e+02	-1.127096e+02	6.302514e-01	-9.821518e+00	1.045177e+01	-1.013664e+01	1.224050e+02	-2.869850e+02	7.120432e+01	-2.513828e+02	3.225872e+02
400           	1.933105e+01	1.270652e+02	-1.077342e+02	5.862098e-01	-9.894851e+00	1.048106e+01	-1.018796e+01	1.173997e+02	-2.810769e+02	6.519743e+01	-2.484782e+02	3.136756e+02
