# Force and moment coefficients
# dragDir     : (1.000000e+00 0.000000e+00 0.000000e+00)
# sideDir     : (0.000000e+00 0.000000e+00 -1.000000e+00)
# liftDir     : (0.000000e+00 1.000000e+00 0.000000e+00)
# rollAxis    : (1.000000e+00 0.000000e+00 0.000000e+00)
# pitchAxis   : (0.000000e+00 0.000000e+00 -1.000000e+00)
# yawAxis     : (0.000000e+00 1.000000e+00 0.000000e+00)
# magUInf     : 1.900000e+01
# lRef        : 1.000000e+00
# Aref        : 1.000000e+00
# CofR        : (0.000000e+00 0.000000e+00 0.000000e+00)
#
# Time        	Cd            	Cd(f)         	Cd(r)         	Cl            	Cl(f)         	Cl(r)         	CmPitch       	CmRoll        	CmYaw         	Cs            	Cs(f)         	Cs(r)         
50            	3.804516e-01	9.543120e+00	-9.162668e+00	-5.215382e-02	-1.717133e-01	1.195595e-01	-1.456364e-01	9.352894e+00	-1.292512e+01	4.428129e+00	-1.071106e+01	1.513919e+01
100           	2.985949e-01	4.363799e+00	-4.065204e+00	-2.858347e-02	-1.330791e-01	1.044957e-01	-1.187874e-01	4.214501e+00	-7.061198e+00	2.064562e+00	-6.028916e+00	8.093479e+00
150           	2.626263e-01	2.561957e+00	-2.299331e+00	-3.279036e-03	-1.177680e-01	1.144889e-01	-1.161284e-01	2.430644e+00	-4.757314e+00	1.191825e+00	-4.161402e+00	5.353226e+00
200           	2.417775e-01	1.649088e+00	-1.407310e+00	3.953670e-03	-1.131161e-01	1.170698e-01	-1.150929e-01	1.528199e+00	-3.576953e+00	7.326078e-01	-3.210649e+00	3.943257e+00
250           	2.321251e-01	1.144799e+00	-9.126736e-01	-1.234338e-03	-1.152766e-01	1.140422e-01	-1.146594e-01	1.028736e+00	-2.955998e+00	4.752149e-01	-2.718391e+00	3.193606e+00
300           	2.263536e-01	8.518967e-01	-6.255431e-01	-1.464769e-02	-1.213824e-01	1.067347e-01	-1.140586e-01	7.387199e-01	-2.617117e+00	3.385994e-01	-2.447818e+00	2.786417e+00
350           	2.191420e-01	7.327628e-01	-5.136208e-01	-2.054658e-02	-1.240466e-01	1.035000e-01	-1.137733e-01	6.231918e-01	-2.459089e+00	2.957651e-01	-2.311206e+00	2.606971e+00
400           	2.141920e-01	6.770536e-01	-4.628615e-01	-2.291199e-02	-1.250205e-01	1.021085e-01	-1.135645e-01	5.699576e-01	-2.388952e+00	2.816081e-01	-2.248148e+00	2.529756e+00
