# Force and moment coefficients
# dragDir     : (1.000000e+00 0.000000e+00 0.000000e+00)
# sideDir     : (0.000000e+00 0.000000e+00 -1.000000e+00)
# liftDir     : (0.000000e+00 1.000000e+00 0.000000e+00)
# rollAxis    : (1.000000e+00 0.000000e+00 0.000000e+00)
# pitchAxis   : (0.000000e+00 0.000000e+00 -1.000000e+00)
# yawAxis     : (0.000000e+00 1.000000e+00 0.000000e+00)
# magUInf     : 1.800000e+01
# lRef        : 1.000000e+00
# Aref        : 1.000000e+00
# CofR        : (0.000000e+00 0.000000e+00 0.000000e+00)
#
# Time        	Cd            	Cd(f)         	Cd(r)         	Cl            	Cl(f)         	Cl(r)         	CmPitch       	CmRoll        	CmYaw         	Cs            	Cs(f)         	Cs(r)         
50            	3.351380e-01	1.022974e+01	-9.894605e+00	-7.300519e-02	-1.996192e-01	1.266140e-01	-1.631166e-01	1.006217e+01	-1.378650e+01	4.785792e+00	-1.139361e+01	1.617940e+01
100           	2.692687e-01	4.647703e+00	-4.378435e+00	-4.180973e-02	-1.563698e-01	1.145600e-01	-1.354649e-01	4.513069e+00	-7.507508e+00	2.249189e+00	-6.382913e+00	8.632102e+00
150           	2.332142e-01	2.560523e+00	-2.327308e+00	-1.166625e-02	-1.368347e-01	1.251684e-01	-1.310016e-01	2.443916e+00	-4.816832e+00	1.208117e+00	-4.212773e+00	5.420890e+00
200           	2.109910e-01	1.532021e+00	-1.321030e+00	4.102468e-03	-1.275263e-01	1.316287e-01	-1.295775e-01	1.426526e+00	-3.447773e+00	6.797145e-01	-3.107916e+00	3.787630e+00
250           	2.048342e-01	9.986709e-01	-7.938367e-01	1.469623e-02	-1.215404e-01	1.362366e-01	-1.288885e-01	8.962538e-01	-2.738381e+00	3.870902e-01	-2.544836e+00	2.931926e+00
300           	2.103453e-01	7.449701e-01	-5.346248e-01	1.759265e-02	-1.199173e-01	1.375099e-01	-1.287136e-01	6.397975e-01	-2.420992e+00	2.398314e-01	-2.301076e+00	2.540907e+00
350           	2.191502e-01	6.451177e-01	-4.259675e-01	1.819817e-02	-1.195857e-01	1.377839e-01	-1.286848e-01	5.355426e-01	-2.318503e+00	1.760483e-01	-2.230479e+00	2.406527e+00
400           	2.219599e-01	5.874827e-01	-3.655228e-01	1.778941e-02	-1.197302e-01	1.375196e-01	-1.286249e-01	4.765027e-01	-2.262792e+00	1.457677e-01	-2.189908e+00	2.335675e+00
