# Force and moment coefficients
# dragDir     : (1.000000e+00 0.000000e+00 0.000000e+00)
# sideDir     : (0.000000e+00 0.000000e+00 -1.000000e+00)
# liftDir     : (0.000000e+00 1.000000e+00 0.000000e+00)
# rollAxis    : (1.000000e+00 0.000000e+00 0.000000e+00)
# pitchAxis   : (0.000000e+00 0.000000e+00 -1.000000e+00)
# yawAxis     : (0.000000e+00 1.000000e+00 0.000000e+00)
# magUInf     : 2.900000e+01
# lRef        : 1.000000e+00
# Aref        : 1.000000e+00
# CofR        : (0.000000e+00 0.000000e+00 0.000000e+00)
#
# Time        	Cd            	Cd(f)         	Cd(r)         	Cl            	Cl(f)         	Cl(r)         	CmPitch       	CmRoll        	CmYaw         	Cs            	Cs(f)         	Cs(r)         
50            	1.771501e-01	4.931210e+00	-4.754060e+00	-2.641193e-02	-8.643005e-02	6.001812e-02	-7.322409e-02	4.842635e+00	-6.433934e+00	2.206645e+00	-5.330611e+00	7.537256e+00
100           	1.262674e-01	2.136152e+00	-2.009884e+00	-1.796201e-02	-6.272001e-02	4.475799e-02	-5.373900e-02	2.073018e+00	-3.312619e+00	1.061279e+00	-2.781979e+00	3.843259e+00
150           	1.057422e-01	1.441020e+00	-1.335278e+00	-8.642073e-03	-5.459353e-02	4.595146e-02	-5.027250e-02	1.388149e+00	-2.412064e+00	7.914365e-01	-2.016346e+00	2.807782e+00
200           	8.886817e-02	1.378422e+00	-1.289554e+00	-2.547344e-03	-4.961159e-02	4.706425e-02	-4.833792e-02	1.333988e+00	-2.200346e+00	7.987046e-01	-1.800993e+00	2.599698e+00
250           	8.705460e-02	1.127221e+00	-1.040167e+00	3.626076e-03	-4.616847e-02	4.979455e-02	-4.798151e-02	1.083694e+00	-1.859176e+00	6.334120e-01	-1.542470e+00	2.175882e+00
300           	8.809267e-02	8.992631e-01	-8.111704e-01	2.928988e-03	-4.651891e-02	4.944790e-02	-4.798340e-02	8.552167e-01	-1.624246e+00	5.007901e-01	-1.373851e+00	1.874641e+00
350           	9.222787e-02	6.283019e-01	-5.360740e-01	2.997629e-03	-4.671352e-02	4.971115e-02	-4.821233e-02	5.821879e-01	-1.364970e+00	3.386650e-01	-1.195638e+00	1.534303e+00
400           	9.194317e-02	6.043531e-01	-5.124099e-01	2.788156e-03	-4.706231e-02	4.985047e-02	-4.845639e-02	5.583815e-01	-1.336870e+00	3.100948e-01	-1.181823e+00	1.491917e+00
