# Force and moment coefficients
# dragDir     : (1.000000e+00 0.000000e+00 0.000000e+00)
# sideDir     : (0.000000e+00 0.000000e+00 -1.000000e+00)
# liftDir     : (0.000000e+00 1.000000e+00 0.000000e+00)
# rollAxis    : (1.000000e+00 0.000000e+00 0.000000e+00)
# pitchAxis   : (0.000000e+00 0.000000e+00 -1.000000e+00)
# yawAxis     : (0.000000e+00 1.000000e+00 0.000000e+00)
# magUInf     : 3.000000e+00
# lRef        : 1.000000e+00
# Aref        : 1.000000e+00
# CofR        : (0.000000e+00 0.000000e+00 0.000000e+00)
#
# Time        	Cd            	Cd(f)         	Cd(r)         	Cl            	Cl(f)         	Cl(r)         	CmPitch       	CmRoll        	CmYaw         	Cs            	Cs(f)         	Cs(r)         
50            	1.206497e+01	3.682708e+02	-3.562058e+02	-2.628187e+00	-7.186292e+00	4.558105e+00	-5.872199e+00	3.622383e+02	-4.963141e+02	1.722885e+02	-4.101699e+02	5.824584e+02
100           	9.693673e+00	1.673173e+02	-1.576236e+02	-1.505150e+00	-5.629312e+00	4.124161e+00	-4.876737e+00	1.624705e+02	-2.702703e+02	8.097080e+01	-2.297849e+02	3.107557e+02
150           	8.395712e+00	9.217882e+01	-8.378310e+01	-4.199851e-01	-4.926048e+00	4.506063e+00	-4.716056e+00	8.798096e+01	-1.734059e+02	4.349221e+01	-1.516598e+02	1.951520e+02
200           	7.595676e+00	5.515277e+01	-4.755709e+01	1.476888e-01	-4.590945e+00	4.738634e+00	-4.664790e+00	5.135493e+01	-1.241198e+02	2.446972e+01	-1.118850e+02	1.363547e+02
250           	7.374031e+00	3.595215e+01	-2.857812e+01	5.290642e-01	-4.375454e+00	4.904518e+00	-4.639986e+00	3.226514e+01	-9.858171e+01	1.393525e+01	-9.161409e+01	1.055493e+02
300           	7.572431e+00	2.681892e+01	-1.924649e+01	6.333353e-01	-4.317022e+00	4.950357e+00	-4.633690e+00	2.303271e+01	-8.715570e+01	8.633931e+00	-8.283874e+01	9.147267e+01
350           	7.889409e+00	2.322424e+01	-1.533483e+01	6.551342e-01	-4.305085e+00	4.960219e+00	-4.632652e+00	1.927953e+01	-8.346612e+01	6.337740e+00	-8.029725e+01	8.663499e+01
400           	7.990558e+00	2.114938e+01	-1.315882e+01	6.404187e-01	-4.310286e+00	4.950704e+00	-4.630495e+00	1.715410e+01	-8.146050e+01	5.247638e+00	-7.883668e+01	8.408432e+01
