# Force and moment coefficients
# dragDir     : (1.000000e+00 0.000000e+00 0.000000e+00)
# sideDir     : (0.000000e+00 0.000000e+00 -1.000000e+00)
# liftDir     : (0.000000e+00 1.000000e+00 0.000000e+00)
# rollAxis    : (1.000000e+00 0.000000e+00 0.000000e+00)
# pitchAxis   : (0.000000e+00 0.000000e+00 -1.000000e+00)
# yawAxis     : (0.000000e+00 1.000000e+00 0.000000e+00)
# magUInf     : 1.000000e+00
# lRef        : 1.000000e+00
# Aref        : 1.000000e+00
# CofR        : (0.000000e+00 0.000000e+00 0.000000e+00)
#
# Time        	Cd            	Cd(f)         	Cd(r)         	Cl            	Cl(f)         	Cl(r)         	CmPitch       	CmRoll        	CmYaw         	Cs            	Cs(f)         	Cs(r)         
50            	1.085847e+02	3.314437e+03	-3.205852e+03	-2.365368e+01	-6.467663e+01	4.102295e+01	-5.284979e+01	3.260144e+03	-4.466827e+03	1.550597e+03	-3.691529e+03	5.242125e+03
100           	8.724306e+01	1.505856e+03	-1.418613e+03	-1.354635e+01	-5.066380e+01	3.711745e+01	-4.389063e+01	1.462234e+03	-2.432433e+03	7.287372e+02	-2.068064e+03	2.796801e+03
150           	7.556140e+01	8.296093e+02	-7.540479e+02	-3.779866e+00	-4.433444e+01	4.055457e+01	-4.244450e+01	7.918286e+02	-1.560653e+03	3.914299e+02	-1.364939e+03	1.756368e+03
200           	6.836108e+01	4.963749e+02	-4.280138e+02	1.329200e+00	-4.131851e+01	4.264771e+01	-4.198311e+01	4.621944e+02	-1.117078e+03	2.202275e+02	-1.006965e+03	1.227192e+03
250           	6.636628e+01	3.235694e+02	-2.572031e+02	4.761578e+00	-3.937909e+01	4.414066e+01	-4.175988e+01	2.903862e+02	-8.872354e+02	1.254172e+02	-8.245268e+02	9.499440e+02
300           	6.815188e+01	2.413703e+02	-1.732184e+02	5.700018e+00	-3.885320e+01	4.455322e+01	-4.170321e+01	2.072944e+02	-7.844013e+02	7.770538e+01	-7.455486e+02	8.232540e+02
350           	7.100468e+01	2.090181e+02	-1.380135e+02	5.896207e+00	-3.874576e+01	4.464197e+01	-4.169386e+01	1.735158e+02	-7.511951e+02	5.703966e+01	-7.226752e+02	7.797149e+02
400           	7.191502e+01	1.903444e+02	-1.184294e+02	5.763769e+00	-3.879257e+01	4.455634e+01	-4.167446e+01	1.543869e+02	-7.331445e+02	4.722874e+01	-7.095301e+02	7.567588e+02
