# Force and moment coefficients
# dragDir     : (1.000000e+00 0.000000e+00 0.000000e+00)
# sideDir     : (0.000000e+00 0.000000e+00 -1.000000e+00)
# liftDir     : (0.000000e+00 1.000000e+00 0.000000e+00)
# rollAxis    : (1.000000e+00 0.000000e+00 0.000000e+00)
# pitchAxis   : (0.000000e+00 0.000000e+00 -1.000000e+00)
# yawAxis     : (0.000000e+00 1.000000e+00 0.000000e+00)
# magUInf     : 6.000000e+00
# lRef        : 1.000000e+00
# Aref        : 1.000000e+00
# CofR        : (0.000000e+00 0.000000e+00 0.000000e+00)
#
# Time        	Cd            	Cd(f)         	Cd(r)         	Cl            	Cl(f)         	Cl(r)         	CmPitch       	CmRoll        	CmYaw         	Cs            	Cs(f)         	Cs(r)         
50            	3.016242e+00	9.206769e+01	-8.905145e+01	-6.570467e-01	-1.796573e+00	1.139526e+00	-1.468050e+00	9.055957e+01	-1.240785e+02	4.307213e+01	-1.025425e+02	1.456146e+02
100           	2.423418e+00	4.182933e+01	-3.940591e+01	-3.762876e-01	-1.407328e+00	1.031040e+00	-1.219184e+00	4.061762e+01	-6.756757e+01	2.024270e+01	-5.744622e+01	7.768892e+01
150           	2.098928e+00	2.304470e+01	-2.094578e+01	-1.049963e-01	-1.231512e+00	1.126516e+00	-1.179014e+00	2.199524e+01	-4.335149e+01	1.087305e+01	-3.791496e+01	4.878801e+01
200           	1.898919e+00	1.378819e+01	-1.188927e+01	3.692221e-02	-1.147736e+00	1.184659e+00	-1.166197e+00	1.283873e+01	-3.102996e+01	6.117431e+00	-2.797124e+01	3.408867e+01
250           	1.843508e+00	8.988038e+00	-7.144531e+00	1.322660e-01	-1.093864e+00	1.226130e+00	-1.159997e+00	8.066285e+00	-2.464543e+01	3.483812e+00	-2.290352e+01	2.638733e+01
300           	1.893108e+00	6.704731e+00	-4.811623e+00	1.583338e-01	-1.079256e+00	1.237589e+00	-1.158422e+00	5.758177e+00	-2.178893e+01	2.158483e+00	-2.070968e+01	2.286817e+01
350           	1.972352e+00	5.806059e+00	-3.833707e+00	1.637835e-01	-1.076271e+00	1.240055e+00	-1.158163e+00	4.819883e+00	-2.086653e+01	1.584435e+00	-2.007431e+01	2.165875e+01
400           	1.997639e+00	5.287344e+00	-3.289705e+00	1.601047e-01	-1.077571e+00	1.237676e+00	-1.157624e+00	4.288525e+00	-2.036512e+01	1.311909e+00	-1.970917e+01	2.102108e+01
