# Force and moment coefficients
# dragDir     : (1.000000e+00 0.000000e+00 0.000000e+00)
# sideDir     : (0.000000e+00 0.000000e+00 -1.000000e+00)
# liftDir     : (0.000000e+00 1.000000e+00 0.000000e+00)
# rollAxis    : (1.000000e+00 0.000000e+00 0.000000e+00)
# pitchAxis   : (0.000000e+00 0.000000e+00 -1.000000e+00)
# yawAxis     : (0.000000e+00 1.000000e+00 0.000000e+00)
# magUInf     : 2.400000e+01
# lRef        : 1.000000e+00
# Aref        : 1.000000e+00
# CofR        : (0.000000e+00 0.000000e+00 0.000000e+00)
#
# Time        	Cd            	Cd(f)         	Cd(r)         	Cl            	Cl(f)         	Cl(r)         	CmPitch       	CmRoll        	CmYaw         	Cs            	Cs(f)         	Cs(r)         
50            	1.885151e-01	5.754231e+00	-5.565715e+00	-4.106542e-02	-1.122858e-01	7.122039e-02	-9.175310e-02	5.659973e+00	-7.754908e+00	2.692008e+00	-6.408904e+00	9.100912e+00
100           	1.514636e-01	2.614333e+00	-2.462869e+00	-2.351797e-02	-8.795799e-02	6.444002e-02	-7.619901e-02	2.538601e+00	-4.222973e+00	1.265169e+00	-3.590389e+00	4.855558e+00
150           	1.311830e-01	1.440294e+00	-1.309111e+00	-6.562267e-03	-7.696951e-02	7.040724e-02	-7.368837e-02	1.374702e+00	-2.709468e+00	6.795658e-01	-2.369685e+00	3.049251e+00
200           	1.186824e-01	8.617620e-01	-7.430795e-01	2.307638e-03	-7.173352e-02	7.404116e-02	-7.288734e-02	8.024208e-01	-1.939372e+00	3.823394e-01	-1.748203e+00	2.130542e+00
250           	1.152192e-01	5.617524e-01	-4.465332e-01	8.266628e-03	-6.836647e-02	7.663310e-02	-7.249978e-02	5.041428e-01	-1.540339e+00	2.177382e-01	-1.431470e+00	1.649208e+00
300           	1.183192e-01	4.190457e-01	-3.007265e-01	9.895864e-03	-6.745347e-02	7.734933e-02	-7.240140e-02	3.598861e-01	-1.361808e+00	1.349052e-01	-1.294355e+00	1.429260e+00
350           	1.232720e-01	3.628787e-01	-2.396067e-01	1.023647e-02	-6.726695e-02	7.750342e-02	-7.238518e-02	3.012427e-01	-1.304158e+00	9.902719e-02	-1.254644e+00	1.353672e+00
400           	1.248525e-01	3.304590e-01	-2.056066e-01	1.000654e-02	-6.734821e-02	7.735476e-02	-7.235148e-02	2.680328e-01	-1.272820e+00	8.199434e-02	-1.231823e+00	1.313817e+00
