# Force and moment coefficients
# dragDir     : (1.000000e+00 0.000000e+00 0.000000e+00)
# sideDir     : (0.000000e+00 0.000000e+00 -1.000000e+00)
# liftDir     : (0.000000e+00 1.000000e+00 0.000000e+00)
# rollAxis    : (1.000000e+00 0.000000e+00 0.000000e+00)
# pitchAxis   : (0.000000e+00 0.000000e+00 -1.000000e+00)
# yawAxis     : (0.000000e+00 1.000000e+00 0.000000e+00)
# magUInf     : 1.100000e+01
# lRef        : 1.000000e+00
# Aref        : 1.000000e+00
# CofR        : (0.000000e+00 0.000000e+00 0.000000e+00)
#
# Time        	Cd            	Cd(f)         	Cd(r)         	Cl            	Cl(f)         	Cl(r)         	CmPitch       	CmRoll        	CmYaw         	Cs            	Cs(f)         	Cs(r)         
50            	1.135066e+00	2.847162e+01	-2.733656e+01	-1.555994e-01	-5.123017e-01	3.567023e-01	-4.345020e-01	2.790409e+01	-3.856172e+01	1.321119e+01	-3.195613e+01	4.516732e+01
100           	8.908492e-01	1.301927e+01	-1.212842e+01	-8.527794e-02	-3.970378e-01	3.117598e-01	-3.543988e-01	1.257384e+01	-2.106688e+01	6.159562e+00	-1.798710e+01	2.414666e+01
150           	7.835381e-01	7.643525e+00	-6.859987e+00	-9.782910e-03	-3.513573e-01	3.415744e-01	-3.464658e-01	7.251756e+00	-1.419331e+01	3.555774e+00	-1.241542e+01	1.597120e+01
200           	7.213362e-01	4.920005e+00	-4.198669e+00	1.179566e-02	-3.374786e-01	3.492743e-01	-3.433765e-01	4.559337e+00	-1.067174e+01	2.185714e+00	-9.578879e+00	1.176459e+01
250           	6.925387e-01	3.415474e+00	-2.722935e+00	-3.682611e-03	-3.439243e-01	3.402417e-01	-3.420830e-01	3.069205e+00	-8.819135e+00	1.417790e+00	-8.110240e+00	9.528030e+00
300           	6.753194e-01	2.541609e+00	-1.866290e+00	-4.370096e-02	-3.621410e-01	3.184400e-01	-3.402905e-01	2.203949e+00	-7.808094e+00	1.010202e+00	-7.302993e+00	8.313195e+00
350           	6.538039e-01	2.186177e+00	-1.532373e+00	-6.130012e-02	-3.700895e-01	3.087893e-01	-3.394394e-01	1.859275e+00	-7.336620e+00	8.824067e-01	-6.895416e+00	7.777823e+00
400           	6.390358e-01	2.019970e+00	-1.380934e+00	-6.835726e-02	-3.729949e-01	3.046377e-01	-3.388163e-01	1.700452e+00	-7.127370e+00	8.401695e-01	-6.707285e+00	7.547454e+00
