# Force and moment coefficients
# dragDir     : (1.000000e+00 0.000000e+00 0.000000e+00)
# sideDir     : (0.000000e+00 0.000000e+00 -1.000000e+00)
# liftDir     : (0.000000e+00 1.000000e+00 0.000000e+00)
# rollAxis    : (1.000000e+00 0.000000e+00 0.000000e+00)
# pitchAxis   : (0.000000e+00 0.000000e+00 -1.000000e+00)
# yawAxis     : (0.000000e+00 1.000000e+00 0.000000e+00)
# magUInf     : 1.200000e+01
# lRef        : 1.000000e+00
# Aref        : 1.000000e+00
# CofR        : (0.000000e+00 0.000000e+00 0.000000e+00)
#
# Time        	Cd            	Cd(f)         	Cd(r)         	Cl            	Cl(f)         	Cl(r)         	CmPitch       	CmRoll        	CmYaw         	Cs            	Cs(f)         	Cs(r)         
50            	7.540604e-01	2.301692e+01	-2.226286e+01	-1.642617e-01	-4.491433e-01	2.848816e-01	-3.670124e-01	2.263989e+01	-3.101963e+01	1.076803e+01	-2.563562e+01	3.640365e+01
100           	6.058546e-01	1.045733e+01	-9.851478e+00	-9.407189e-02	-3.518320e-01	2.577601e-01	-3.047960e-01	1.015440e+01	-1.689189e+01	5.060675e+00	-1.436156e+01	1.942223e+01
150           	5.247320e-01	5.761176e+00	-5.236444e+00	-2.624907e-02	-3.078780e-01	2.816290e-01	-2.947535e-01	5.498810e+00	-1.083787e+01	2.718263e+00	-9.478740e+00	1.219700e+01
200           	4.747298e-01	3.447048e+00	-2.972318e+00	9.230553e-03	-2.869341e-01	2.961646e-01	-2.915494e-01	3.209683e+00	-7.757489e+00	1.529358e+00	-6.992810e+00	8.522168e+00
250           	4.608769e-01	2.247010e+00	-1.786133e+00	3.306651e-02	-2.734659e-01	3.065324e-01	-2.899991e-01	2.016571e+00	-6.161357e+00	8.709529e-01	-5.725881e+00	6.596833e+00
300           	4.732769e-01	1.676183e+00	-1.202906e+00	3.958346e-02	-2.698139e-01	3.093973e-01	-2.896056e-01	1.439544e+00	-5.447231e+00	5.396207e-01	-5.177421e+00	5.717042e+00
350           	4.930881e-01	1.451515e+00	-9.584268e-01	4.094588e-02	-2.690678e-01	3.100137e-01	-2.895407e-01	1.204971e+00	-5.216632e+00	3.961088e-01	-5.018578e+00	5.414687e+00
400           	4.994099e-01	1.321836e+00	-8.224262e-01	4.002617e-02	-2.693929e-01	3.094190e-01	-2.894059e-01	1.072131e+00	-5.091281e+00	3.279774e-01	-4.927292e+00	5.255270e+00
