# Force and moment coefficients
# dragDir     : (1.000000e+00 0.000000e+00 0.000000e+00)
# sideDir     : (0.000000e+00 0.000000e+00 -1.000000e+00)
# liftDir     : (0.000000e+00 1.000000e+00 0.000000e+00)
# rollAxis    : (1.000000e+00 0.000000e+00 0.000000e+00)
# pitchAxis   : (0.000000e+00 0.000000e+00 -1.000000e+00)
# yawAxis     : (0.000000e+00 1.000000e+00 0.000000e+00)
# magUInf     : 3.000000e+01
# lRef        : 1.000000e+00
# Aref        : 1.000000e+00
# CofR        : (0.000000e+00 0.000000e+00 0.000000e+00)
#
# Time        	Cd            	Cd(f)         	Cd(r)         	Cl            	Cl(f)         	Cl(r)         	CmPitch       	CmRoll        	CmYaw         	Cs            	Cs(f)         	Cs(r)         
50            	1.526034e-01	3.827852e+00	-3.675248e+00	-2.091948e-02	-6.887612e-02	4.795664e-02	-5.841638e-02	3.751550e+00	-5.184410e+00	1.776172e+00	-4.296324e+00	6.072495e+00
100           	1.197697e-01	1.750368e+00	-1.630598e+00	-1.146515e-02	-5.337952e-02	4.191438e-02	-4.764695e-02	1.690483e+00	-2.832325e+00	8.281189e-01	-2.418265e+00	3.246384e+00
150           	1.053423e-01	1.027630e+00	-9.222872e-01	-1.315258e-03	-4.723804e-02	4.592278e-02	-4.658041e-02	9.749584e-01	-1.908212e+00	4.780541e-01	-1.669185e+00	2.147239e+00
200           	9.697965e-02	6.614674e-01	-5.644877e-01	1.585861e-03	-4.537213e-02	4.695799e-02	-4.616506e-02	6.129775e-01	-1.434756e+00	2.938571e-01	-1.287827e+00	1.581684e+00
250           	9.310798e-02	4.591915e-01	-3.660835e-01	-4.951066e-04	-4.623872e-02	4.574361e-02	-4.599116e-02	4.126375e-01	-1.185684e+00	1.906140e-01	-1.090377e+00	1.280991e+00
300           	9.079294e-02	3.417052e-01	-2.509123e-01	-5.875351e-03	-4.868784e-02	4.281249e-02	-4.575017e-02	2.963088e-01	-1.049755e+00	1.358160e-01	-9.818469e-01	1.117663e+00
350           	8.790030e-02	2.939193e-01	-2.060190e-01	-8.241460e-03	-4.975647e-02	4.151501e-02	-4.563574e-02	2.499692e-01	-9.863677e-01	1.186347e-01	-9.270504e-01	1.045685e+00
400           	8.591481e-02	2.715737e-01	-1.856589e-01	-9.190254e-03	-5.014709e-02	4.095684e-02	-4.555197e-02	2.286163e-01	-9.582352e-01	1.129561e-01	-9.017572e-01	1.014713e+00
