# Force and moment coefficients
# dragDir     : (1.000000e+00 0.000000e+00 0.000000e+00)
# sideDir     : (0.000000e+00 0.000000e+00 -1.000000e+00)
# liftDir     : (0.000000e+00 1.000000e+00 0.000000e+00)
# rollAxis    : (1.000000e+00 0.000000e+00 0.000000e+00)
# pitchAxis   : (0.000000e+00 0.000000e+00 -1.000000e+00)
# yawAxis     : (0.000000e+00 1.000000e+00 0.000000e+00)
# magUInf     : 5.000000e+00
# lRef        : 1.000000e+00
# Aref        : 1.000000e+00
# CofR        : (0.000000e+00 0.000000e+00 0.000000e+00)
#
# Time        	Cd            	Cd(f)         	Cd(r)         	Cl            	Cl(f)         	Cl(r)         	CmPitch       	CmRoll        	CmYaw         	Cs            	Cs(f)         	Cs(r)         
50            	4.343388e+00	1.325775e+02	-1.282341e+02	-9.461473e-01	-2.587065e+00	1.640918e+00	-2.113992e+00	1.304058e+02	-1.786731e+02	6.202387e+01	-1.476611e+02	2.096850e+02
100           	3.489722e+00	6.023423e+01	-5.674451e+01	-5.418541e-01	-2.026552e+00	1.484698e+00	-1.755625e+00	5.848937e+01	-9.729730e+01	2.914949e+01	-8.272256e+01	1.118720e+02
150           	3.022456e+00	3.318437e+01	-3.016192e+01	-1.511946e-01	-1.773377e+00	1.622183e+00	-1.697780e+00	3.167315e+01	-6.242614e+01	1.565720e+01	-5.459754e+01	7.025474e+01
200           	2.734443e+00	1.985500e+01	-1.712055e+01	5.316798e-02	-1.652740e+00	1.705908e+00	-1.679324e+00	1.848777e+01	-4.468314e+01	8.809100e+00	-4.027859e+01	4.908769e+01
250           	2.654651e+00	1.294278e+01	-1.028812e+01	1.904631e-01	-1.575163e+00	1.765627e+00	-1.670395e+00	1.161545e+01	-3.548942e+01	5.016689e+00	-3.298107e+01	3.799776e+01
300           	2.726075e+00	9.654813e+00	-6.928738e+00	2.280007e-01	-1.554128e+00	1.782129e+00	-1.668128e+00	8.291775e+00	-3.137605e+01	3.108215e+00	-2.982195e+01	3.293016e+01
350           	2.840187e+00	8.360726e+00	-5.520538e+00	2.358483e-01	-1.549830e+00	1.785679e+00	-1.667755e+00	6.940632e+00	-3.004780e+01	2.281587e+00	-2.890701e+01	3.118860e+01
400           	2.876601e+00	7.613776e+00	-4.737175e+00	2.305507e-01	-1.551703e+00	1.782254e+00	-1.666978e+00	6.175475e+00	-2.932578e+01	1.889150e+00	-2.838120e+01	3.027035e+01
