# Force and moment coefficients
# dragDir     : (1.000000e+00 0.000000e+00 0.000000e+00)
# sideDir     : (0.000000e+00 0.000000e+00 -1.000000e+00)
# liftDir     : (0.000000e+00 1.000000e+00 0.000000e+00)
# rollAxis    : (1.000000e+00 0.000000e+00 0.000000e+00)
# pitchAxis   : (0.000000e+00 0.000000e+00 -1.000000e+00)
# yawAxis     : (0.000000e+00 1.000000e+00 0.000000e+00)
# magUInf     : 3.000000e+00
# lRef        : 1.000000e+00
# Aref        : 1.000000e+00
# CofR        : (0.000000e+00 0.000000e+00 0.000000e+00)
#
# Time        	Cd            	Cd(f)         	Cd(r)         	Cl            	Cl(f)         	Cl(r)         	CmPitch       	CmRoll        	CmYaw         	Cs            	Cs(f)         	Cs(r)         
50            	1.655370e+01	4.607942e+02	-4.442405e+02	-2.468048e+00	-8.076408e+00	5.608360e+00	-6.842384e+00	4.525173e+02	-6.012154e+02	2.061987e+02	-4.981160e+02	7.043147e+02
100           	1.179899e+01	1.996115e+02	-1.878125e+02	-1.678450e+00	-5.860836e+00	4.182386e+00	-5.021611e+00	1.937120e+02	-3.095459e+02	9.917067e+01	-2.599605e+02	3.591312e+02
150           	9.881021e+00	1.346553e+02	-1.247743e+02	-8.075537e-01	-5.101462e+00	4.293909e+00	-4.697685e+00	1.297148e+02	-2.253940e+02	7.395534e+01	-1.884163e+02	2.623717e+02
200           	8.304237e+00	1.288059e+02	-1.205017e+02	-2.380351e-01	-4.635928e+00	4.397893e+00	-4.516910e+00	1.246538e+02	-2.056101e+02	7.463451e+01	-1.682928e+02	2.429273e+02
250           	8.134769e+00	1.053326e+02	-9.719780e+01	3.388367e-01	-4.314187e+00	4.653024e+00	-4.483606e+00	1.012652e+02	-1.737296e+02	5.918883e+01	-1.441352e+02	2.033240e+02
300           	8.231770e+00	8.403114e+01	-7.579937e+01	2.736976e-01	-4.346934e+00	4.620631e+00	-4.483782e+00	7.991525e+01	-1.517768e+02	4.679606e+01	-1.283787e+02	1.751748e+02
350           	8.618182e+00	5.871132e+01	-5.009314e+01	2.801117e-01	-4.365119e+00	4.645231e+00	-4.505175e+00	5.440223e+01	-1.275489e+02	3.164637e+01	-1.117257e+02	1.433721e+02
400           	8.591579e+00	5.647344e+01	-4.788186e+01	2.605377e-01	-4.397712e+00	4.658249e+00	-4.527981e+00	5.217765e+01	-1.249231e+02	2.897664e+01	-1.104348e+02	1.394114e+02
