# Force and moment coefficients
# dragDir     : (1.000000e+00 0.000000e+00 0.000000e+00)
# sideDir     : (0.000000e+00 0.000000e+00 -1.000000e+00)
# liftDir     : (0.000000e+00 1.000000e+00 0.000000e+00)
# rollAxis    : (1.000000e+00 0.000000e+00 0.000000e+00)
# pitchAxis   : (0.000000e+00 0.000000e+00 -1.000000e+00)
# yawAxis     : (0.000000e+00 1.000000e+00 0.000000e+00)
# magUInf     : 2.600000e+01
# lRef        : 1.000000e+00
# Aref        : 1.000000e+00
# CofR        : (0.000000e+00 0.000000e+00 0.000000e+00)
#
# Time        	Cd            	Cd(f)         	Cd(r)         	Cl            	Cl(f)         	Cl(r)         	CmPitch       	CmRoll        	CmYaw         	Cs            	Cs(f)         	Cs(r)         
50            	1.606283e-01	4.903013e+00	-4.742385e+00	-3.499065e-02	-9.567549e-02	6.068483e-02	-7.818016e-02	4.822699e+00	-6.607732e+00	2.293782e+00	-5.460841e+00	7.754623e+00
100           	1.290578e-01	2.227597e+00	-2.098540e+00	-2.003898e-02	-7.494646e-02	5.490747e-02	-6.492697e-02	2.163069e+00	-3.598273e+00	1.078014e+00	-3.059266e+00	4.137280e+00
150           	1.117772e-01	1.227233e+00	-1.115456e+00	-5.591517e-03	-6.558348e-02	5.999197e-02	-6.278773e-02	1.171344e+00	-2.308659e+00	5.790383e-01	-2.019140e+00	2.598178e+00
200           	1.011259e-01	7.342824e-01	-6.331565e-01	1.966272e-03	-6.112206e-02	6.308833e-02	-6.210519e-02	6.837195e-01	-1.652483e+00	3.257803e-01	-1.489593e+00	1.815373e+00
250           	9.817497e-02	4.786529e-01	-3.804780e-01	7.043754e-03	-5.825309e-02	6.529684e-02	-6.177496e-02	4.295654e-01	-1.312478e+00	1.855284e-01	-1.219714e+00	1.405243e+00
300           	1.008164e-01	3.570567e-01	-2.562403e-01	8.431979e-03	-5.747515e-02	6.590713e-02	-6.169114e-02	3.066485e-01	-1.160357e+00	1.149488e-01	-1.102883e+00	1.217831e+00
350           	1.050365e-01	3.091984e-01	-2.041619e-01	8.722200e-03	-5.731621e-02	6.603841e-02	-6.167731e-02	2.566802e-01	-1.111235e+00	8.437820e-02	-1.069046e+00	1.153424e+00
400           	1.063832e-01	2.815746e-01	-1.751914e-01	8.526285e-03	-5.738546e-02	6.591174e-02	-6.164860e-02	2.283830e-01	-1.084533e+00	6.986500e-02	-1.049601e+00	1.119466e+00
