# Force and moment coefficients
# dragDir     : (1.000000e+00 0.000000e+00 0.000000e+00)
# sideDir     : (0.000000e+00 0.000000e+00 -1.000000e+00)
# liftDir     : (0.000000e+00 1.000000e+00 0.000000e+00)
# rollAxis    : (1.000000e+00 0.000000e+00 0.000000e+00)
# pitchAxis   : (0.000000e+00 0.000000e+00 -1.000000e+00)
# yawAxis     : (0.000000e+00 1.000000e+00 0.000000e+00)
# magUInf     : 1.000000e-01
# lRef        : 1.000000e+00
# Aref        : 1.000000e+00
# CofR        : (0.000000e+00 0.000000e+00 0.000000e+00)
#
# Time        	Cd            	Cd(f)         	Cd(r)         	Cl            	Cl(f)         	Cl(r)         	CmPitch       	CmRoll        	CmYaw         	Cs            	Cs(f)         	Cs(r)         
50            	1.085847e+04	3.314437e+05	-3.205852e+05	-2.365368e+03	-6.467663e+03	4.102295e+03	-5.284979e+03	3.260144e+05	-4.466827e+05	1.550597e+05	-3.691529e+05	5.242125e+05
100           	8.724306e+03	1.505856e+05	-1.418613e+05	-1.354635e+03	-5.066380e+03	3.711745e+03	-4.389063e+03	1.462234e+05	-2.432433e+05	7.287372e+04	-2.068064e+05	2.796801e+05
150           	7.556140e+03	8.296093e+04	-7.540479e+04	-3.779866e+02	-4.433444e+03	4.055457e+03	-4.244450e+03	7.918286e+04	-1.560653e+05	3.914299e+04	-1.364939e+05	1.756368e+05
200           	6.836108e+03	4.963749e+04	-4.280138e+04	1.329200e+02	-4.131851e+03	4.264771e+03	-4.198311e+03	4.621944e+04	-1.117078e+05	2.202275e+04	-1.006965e+05	1.227192e+05
250           	6.636628e+03	3.235694e+04	-2.572031e+04	4.761578e+02	-3.937909e+03	4.414066e+03	-4.175988e+03	2.903862e+04	-8.872354e+04	1.254172e+04	-8.245268e+04	9.499440e+04
300           	6.815188e+03	2.413703e+04	-1.732184e+04	5.700018e+02	-3.885320e+03	4.455322e+03	-4.170321e+03	2.072944e+04	-7.844013e+04	7.770538e+03	-7.455486e+04	8.232540e+04
350           	7.100468e+03	2.090181e+04	-1.380135e+04	5.896207e+02	-3.874576e+03	4.464197e+03	-4.169386e+03	1.735158e+04	-7.511951e+04	5.703966e+03	-7.226752e+04	7.797149e+04
400           	7.191502e+03	1.903444e+04	-1.184294e+04	5.763769e+02	-3.879257e+03	4.455634e+03	-4.167446e+03	1.543869e+04	-7.331445e+04	4.722874e+03	-7.095301e+04	7.567588e+04
