# Force and moment coefficients
# dragDir     : (1.000000e+00 0.000000e+00 0.000000e+00)
# sideDir     : (0.000000e+00 0.000000e+00 -1.000000e+00)
# liftDir     : (0.000000e+00 1.000000e+00 0.000000e+00)
# rollAxis    : (1.000000e+00 0.000000e+00 0.000000e+00)
# pitchAxis   : (0.000000e+00 0.000000e+00 -1.000000e+00)
# yawAxis     : (0.000000e+00 1.000000e+00 0.000000e+00)
# magUInf     : 1.500000e+01
# lRef        : 1.000000e+00
# Aref        : 1.000000e+00
# CofR        : (0.000000e+00 0.000000e+00 0.000000e+00)
#
# Time        	Cd            	Cd(f)         	Cd(r)         	Cl            	Cl(f)         	Cl(r)         	CmPitch       	CmRoll        	CmYaw         	Cs            	Cs(f)         	Cs(r)         
50            	4.053371e+00	1.021508e+02	-9.809745e+01	-1.066274e+00	-1.471992e+00	4.057179e-01	-9.388551e-01	1.001241e+02	-1.426144e+02	4.782145e+01	-1.187037e+02	1.665252e+02
100           	3.017935e+00	4.152026e+01	-3.850233e+01	-1.209530e-01	-7.636932e-01	6.427402e-01	-7.032167e-01	4.001129e+01	-7.336107e+01	1.897344e+01	-6.387435e+01	8.284779e+01
150           	2.801119e+00	2.357011e+01	-2.076899e+01	-1.378465e-01	-7.735278e-01	6.356813e-01	-7.046046e-01	2.216955e+01	-5.156352e+01	1.002598e+01	-4.655054e+01	5.657651e+01
200           	2.694031e+00	1.541186e+01	-1.271783e+01	-3.364911e-01	-8.805127e-01	5.440217e-01	-7.122672e-01	1.406484e+01	-4.160385e+01	6.025072e+00	-3.859132e+01	4.461639e+01
250           	2.541455e+00	1.292015e+01	-1.037869e+01	-3.933040e-01	-9.143064e-01	5.210024e-01	-7.176544e-01	1.164942e+01	-3.805966e+01	5.336258e+00	-3.539153e+01	4.072779e+01
300           	2.313874e+00	1.337760e+01	-1.106372e+01	-6.014624e-01	-1.025782e+00	4.243201e-01	-7.250513e-01	1.222066e+01	-3.961855e+01	6.394592e+00	-3.642126e+01	4.281585e+01
350           	2.082303e+00	1.777295e+01	-1.569065e+01	-9.009718e-01	-1.197730e+00	2.967580e-01	-7.472439e-01	1.673180e+01	-4.610591e+01	9.843796e+00	-4.118401e+01	5.102780e+01
400           	1.866908e+00	2.630629e+01	-2.443939e+01	-9.822785e-01	-1.242827e+00	2.605484e-01	-7.516876e-01	2.537284e+01	-5.637577e+01	1.550469e+01	-4.862343e+01	6.412811e+01
